ITEM: TIMESTEP
0
ITEM: NUMBER OF ATOMS
12
ITEM: BOX BOUNDS pp pp pp
0.000000e+00 4.981510e+01
0.000000e+00 4.981510e+01
0.000000e+00 4.981510e+01
ITEM: ATOMS id type x y z fx fy fz
1 3 24.618093 12.498191 27.593428 5.619514 0.686592 -5.881642
2 4 22.273462 15.235385 30.705000 -10.545678 -6.010154 6.146150
3 4 22.771923 18.453941 30.025097 23.130558 5.895122 9.701427
4 4 26.552307 18.703077 26.495001 -43.533123 5.036933 -52.446404
5 4 22.914711 15.234712 23.721251 -16.116962 9.881001 -17.294683
6 4 20.164230 19.031250 21.866732 6.043306 -24.500759 -1.653825
7 4 25.345963 21.780384 21.857788 -4.016733 22.976849 8.960774
8 4 23.586441 25.751539 24.600962 2.708667 4.709488 3.979078
9 4 22.858557 23.484905 28.198942 13.340178 -19.991938 -11.774008
10 5 25.915810 22.247620 30.656572 -22.927214 1.862600 -11.721839
11 1 14.881279 12.625464 40.420116 -5.316415 0.278835 -12.232860
12 2 24.230001 20.810001 30.090000 -4.308959 -1.624852 0.965763
ITEM: TIMESTEP
1000
ITEM: NUMBER OF ATOMS
12
ITEM: BOX BOUNDS pp pp pp
0.000000e+00 5.025428e+01
0.000000e+00 5.025428e+01
0.000000e+00 5.025428e+01
ITEM: ATOMS id type x y z fx fy fz
1 3 23.960342 13.735245 26.693148 -32.147552 24.810160 5.164660
2 4 21.666740 16.879498 30.538271 34.151051 -23.032175 -15.045130
3 4 22.940897 19.888365 29.530218 0.004163 -2.913524 28.397188
4 4 26.908829 18.964342 26.310623 13.860138 12.229692 -5.069546
5 4 22.308004 16.668537 23.153336 -3.236236 -22.030996 21.685755
6 4 20.662334 20.584946 22.280573 -5.379607 5.356969 -49.173756
7 4 26.312935 22.373344 20.902658 -16.091057 21.514000 33.408817
8 4 24.137596 26.255486 24.834421 7.486529 -19.828730 -45.225220
9 4 23.605419 24.285519 27.761124 -8.864227 17.806896 19.140726
10 5 26.507357 23.227301 30.390757 9.776135 -15.284055 9.167258
11 1 14.842686 12.485207 40.354145 0.414000 -1.786251 -0.682070
12 2 24.222904 22.459919 29.808943 -2.696781 1.029106 -2.055329
ITEM: TIMESTEP
2000
ITEM: NUMBER OF ATOMS
12
ITEM: BOX BOUNDS pp pp pp
0.000000e+00 5.077110e+01
0.000000e+00 5.077110e+01
0.000000e+00 5.077110e+01
ITEM: ATOMS id type x y z fx fy fz
1 3 23.190134 14.029724 27.986313 -18.928413 -9.972973 7.808986
2 4 20.898466 16.630989 30.607422 13.763967 -9.217471 -7.519886
3 4 21.903389 20.495489 30.032869 11.720315 1.185428 4.294853
4 4 26.411066 19.512247 27.180244 4.748490 54.407364 26.231594
5 4 22.240475 16.943579 23.957382 -16.945526 0.823721 -0.293714
6 4 20.422787 21.157290 22.547579 31.505571 15.274176 -11.029085
7 4 26.052698 22.521526 21.118032 -8.772833 -16.715357 12.309207
8 4 23.648195 26.761284 24.527136 2.641366 39.565609 7.243241
9 4 22.750370 24.825956 27.769178 14.102900 -35.492935 9.608380
10 5 25.274904 24.132944 30.903482 -9.556884 8.540583 -15.090303
11 1 16.235411 14.642842 40.025478 6.575658 -0.353184 -8.258184
12 2 23.207161 22.981976 29.989412 -3.068492 3.144281 -0.847174
ITEM: TIMESTEP
3000
ITEM: NUMBER OF ATOMS
12
ITEM: BOX BOUNDS pp pp pp
0.000000e+00 5.115303e+01
0.000000e+00 5.115303e+01
0.000000e+00 5.115303e+01
ITEM: ATOMS id type x y z fx fy fz
1 3 23.343447 13.071902 27.934505 -10.319592 29.898813 1.507138
2 4 20.246386 16.533817 31.148384 7.494791 -53.248695 9.480591
3 4 21.816664 19.337372 30.821148 9.448879 34.857704 -12.729411
4 4 26.298439 19.595238 27.979031 -9.483655 -18.417269 -28.915430
5 4 22.775459 16.595428 24.135122 -23.046654 -9.546060 28.811789
6 4 20.077543 20.673487 23.832220 29.482246 12.910433 -9.022697
7 4 25.724718 22.690704 22.963276 -19.796347 -28.304644 -24.392765
8 4 22.811312 26.882065 25.980104 3.769793 16.287800 -0.968357
9 4 22.299564 24.468729 29.289995 -19.328861 20.059526 -3.302644
10 5 24.553221 23.246429 32.261391 11.450859 -14.947363 -0.001341
11 1 14.465635 12.698743 40.521187 -1.067037 -1.348845 1.454231
12 2 22.475822 21.984663 31.418753 8.286603 6.066756 4.714850
ITEM: TIMESTEP
4000
ITEM: NUMBER OF ATOMS
12
ITEM: BOX BOUNDS pp pp pp
0.000000e+00 5.027164e+01
0.000000e+00 5.027164e+01
0.000000e+00 5.027164e+01
ITEM: ATOMS id type x y z fx fy fz
1 3 23.096382 13.672878 28.186476 -9.961352 10.863451 -9.831266
2 4 21.261806 16.996000 31.256189 3.588320 -27.964298 11.056549
3 4 22.582460 20.178963 30.706390 -13.187899 7.877459 -23.316795
4 4 26.717222 19.519377 27.776760 17.124599 -81.126221 37.453094
5 4 22.675913 16.373547 24.039492 1.267903 19.839758 9.664425
6 4 20.516174 20.310192 23.475645 3.803325 -17.252148 0.543515
7 4 25.896240 21.820278 21.633924 14.342478 45.391289 -8.710514
8 4 23.827774 26.506136 24.923050 -4.414112 -19.263573 2.040334
9 4 22.726795 24.701599 28.174488 3.331347 -14.217030 -3.006582
10 5 25.077057 24.668940 31.153597 -13.233604 -17.192907 0.565588
11 1 13.653589 11.747479 38.682995 -1.088366 -2.422449 3.735768
12 2 23.314207 23.204567 30.523361 0.044324 0.875678 -3.961100
ITEM: TIMESTEP
5000
ITEM: NUMBER OF ATOMS
12
ITEM: BOX BOUNDS pp pp pp
0.000000e+00 5.037282e+01
0.000000e+00 5.037282e+01
0.000000e+00 5.037282e+01
ITEM: ATOMS id type x y z fx fy fz
1 3 23.586946 14.125308 29.463707 4.755816 -19.132311 0.213657
2 4 21.213287 17.468885 32.115440 -14.575077 18.552824 20.897900
3 4 21.086468 21.250456 31.179092 6.392476 12.482705 -23.885847
4 4 25.643858 19.468279 28.085735 -7.582924 -38.993896 42.020912
5 4 21.372711 16.586937 25.159531 8.191947 18.202757 -8.344332
6 4 19.600025 21.199886 24.398825 -13.706315 -18.816370 5.879790
7 4 25.148859 22.187351 22.293106 16.918354 0.419950 14.692567
8 4 23.307741 26.771555 25.086050 7.873195 5.578263 30.194981
9 4 22.115511 25.269331 28.454010 -10.694903 4.741047 -7.109088
10 5 24.347322 24.643656 31.884588 -9.936807 -4.195635 -11.560968
11 1 14.044932 11.509830 39.416183 -0.744338 -2.722440 -1.642001
12 2 22.055292 24.271820 31.117716 3.649983 -3.481833 -3.883031
ITEM: TIMESTEP
6000
ITEM: NUMBER OF ATOMS
12
ITEM: BOX BOUNDS pp pp pp
0.000000e+00 5.025280e+01
0.000000e+00 5.025280e+01
0.000000e+00 5.025280e+01
ITEM: ATOMS id type x y z fx fy fz
1 3 23.589052 13.056830 30.001032 20.202456 -21.364523 -1.064649
2 4 22.048122 16.391293 32.152458 -19.340687 13.021024 -5.665004
3 4 21.999872 20.029476 30.758059 -3.246600 4.564292 26.139696
4 4 26.291206 18.074793 27.867159 43.956486 -91.664032 -31.280907
5 4 20.834354 15.912382 25.872568 7.229358 9.385952 -37.799076
6 4 20.097322 19.637711 23.552898 -13.301161 -18.831459 33.426125
7 4 25.647636 19.659893 21.660051 11.228455 3.993601 -18.399990
8 4 23.315355 24.815714 24.164194 5.358404 4.111130 -4.102078
9 4 22.641289 23.665752 27.449949 -4.130347 28.865828 8.648262
10 5 24.553650 24.074316 30.867729 -3.830110 -10.005080 2.781553
11 1 14.287069 13.380552 38.829449 2.182338 0.899464 1.552052
12 2 22.361528 23.007725 30.088453 10.179639 -1.561351 2.909185
ITEM: TIMESTEP
7000
ITEM: NUMBER OF ATOMS
12
ITEM: BOX BOUNDS pp pp pp
0.000000e+00 5.065027e+01
0.000000e+00 5.065027e+01
0.000000e+00 5.065027e+01
ITEM: ATOMS id type x y z fx fy fz
1 3 23.899248 13.550558 30.247543 0.845628 8.962695 -14.770585
2 4 23.252386 17.120583 33.226299 -5.374784 -19.815388 -9.857493
3 4 22.024328 20.569090 31.757544 12.549687 4.227810 -3.345295
4 4 26.446356 18.551874 28.617405 -53.967331 -40.440231 47.015003
5 4 21.346584 15.997652 26.117620 0.877087 -13.484249 -4.676827
6 4 20.270647 20.136269 24.671484 0.479295 17.450298 17.005707
7 4 25.919950 20.272221 22.856066 -29.072845 -22.091135 -14.301460
8 4 24.397585 25.595497 25.102039 -14.663575 1.947613 -24.294846
9 4 22.888683 24.255964 28.771749 -45.888176 1.435853 0.801199
10 5 24.848961 24.578375 31.934063 38.485516 21.006706 13.226505
11 1 11.328127 10.965908 39.501194 -0.656657 -2.655106 -3.900416
12 2 22.735193 23.632847 31.314682 11.399061 -11.455219 6.075076
ITEM: TIMESTEP
8000
ITEM: NUMBER OF ATOMS
12
ITEM: BOX BOUNDS pp pp pp
0.000000e+00 5.086282e+01
0.000000e+00 5.086282e+01
0.000000e+00 5.086282e+01
ITEM: ATOMS id type x y z fx fy fz
1 3 25.302864 14.095593 30.737455 23.253813 8.486894 -9.681113
2 4 24.892569 17.719364 32.691811 -21.890728 -9.115581 22.438164
3 4 23.733891 21.122742 31.265261 0.467708 -3.075570 -16.382383
4 4 28.114037 19.043770 28.411289 19.120255 106.548164 63.807232
5 4 22.998055 16.303362 26.066313 -5.742203 -16.365721 -7.163789
6 4 22.349258 19.969164 24.164541 -5.267536 5.949043 -21.094620
7 4 27.946127 19.988150 22.006323 -7.412158 -18.123938 -0.303822
8 4 26.112558 25.501242 23.799969 -4.209393 20.703304 15.635964
9 4 24.237082 24.214943 27.517447 -0.070384 -8.727610 -15.724203
10 5 26.199741 25.413570 30.766386 6.891737 2.879279 5.318995
11 1 10.307091 10.614237 38.778400 0.200293 8.306252 -5.061924
12 2 24.088486 24.449097 30.529984 1.508526 -9.194233 -2.790639
ITEM: TIMESTEP
9000
ITEM: NUMBER OF ATOMS
12
ITEM: BOX BOUNDS pp pp pp
0.000000e+00 5.052212e+01
0.000000e+00 5.052212e+01
0.000000e+00 5.052212e+01
ITEM: ATOMS id type x y z fx fy fz
1 3 23.419203 15.104685 30.843834 5.035908 -1.979406 -17.444405
2 4 24.117966 18.977530 33.053677 1.545861 -5.371673 20.173487
3 4 23.787371 22.006216 31.084942 -5.818701 -0.461555 -10.396917
4 4 27.632458 19.085175 28.423637 -62.030212 -47.518444 1.057095
5 4 22.178375 16.615967 25.958014 38.862614 7.323197 4.534974
6 4 21.676117 20.770323 24.710075 8.526528 25.674217 -20.020935
7 4 27.587723 20.493382 22.415211 -12.715670 -11.693863 35.826622
8 4 26.356922 25.471094 24.042135 10.350041 10.696867 -26.899006
9 4 24.721428 24.970810 27.346018 -6.356932 -35.316116 24.459688
10 5 26.629473 25.749342 30.510452 9.261851 34.347336 -7.911525
11 1 11.901104 9.751230 37.512882 -1.472350 5.032471 -0.636978
12 2 24.440430 25.021435 30.150761 -0.745641 -6.067558 -2.524238
ITEM: TIMESTEP
10000
ITEM: NUMBER OF ATOMS
12
ITEM: BOX BOUNDS pp pp pp
0.000000e+00 5.075569e+01
0.000000e+00 5.075569e+01
0.000000e+00 5.075569e+01
ITEM: ATOMS id type x y z fx fy fz
1 3 24.810513 15.013103 30.502302 -3.367434 12.892376 5.854644
2 4 24.459757 18.197247 33.167278 -9.821477 7.243024 -17.922953
3 4 24.127535 21.939491 31.611944 14.176810 -7.720518 17.693233
4 4 28.298727 19.476759 28.317301 -12.314906 -90.553177 -28.324778
5 4 23.079391 17.285227 26.186831 0.944057 19.418234 -27.606112
6 4 22.248941 21.535486 24.984102 17.148952 0.338771 15.794628
7 4 27.920179 21.214235 22.621834 -23.279974 -18.696508 1.366120
8 4 27.575178 26.715494 24.846251 -8.250038 -8.300859 -6.769385
9 4 25.222303 25.806604 28.162687 28.048422 -0.085473 27.378439
10 5 27.363281 25.633320 31.677660 -16.930069 17.972300 -26.054796
11 1 11.351519 10.204683 36.739288 8.196922 5.100636 7.767350
12 2 25.275448 24.862871 31.154324 -6.969637 -7.535327 0.120761
