ITEM: TIMESTEP
0
ITEM: NUMBER OF ATOMS
582
ITEM: BOX BOUNDS pp pp pp
0.000000e+00 5.027560e+01
0.000000e+00 5.027560e+01
0.000000e+00 5.027560e+01
ITEM: ATOMS id type x y z fx fy fz
1 1 23.088858 26.148476 11.209333 13.121076 3.982918 20.730059
2 2 19.518749 26.819231 15.084423 -6.572907 21.797585 -32.910011
3 3 23.043524 23.983715 18.549524 -1.178879 -23.584566 7.179605
4 1 29.245523 25.392570 19.547142 11.415687 0.336434 1.291064
5 2 24.562981 28.605192 19.208750 -1.283542 18.379725 0.506081
6 3 27.930475 28.247715 16.130667 -12.187758 -16.297794 -5.499679
7 4 10.895930 24.017441 37.349998 13.356430 3.744309 0.982778
8 4 48.915073 33.751045 46.180531 9.503258 -3.269572 -3.095111
9 4 32.846977 0.102769 9.014470 -0.735684 9.353065 -1.467490
10 4 14.768023 28.591162 41.238903 -2.502055 -0.115952 5.525441
11 4 11.940232 25.955000 12.546098 2.378203 8.009318 -4.980066
12 4 22.317558 4.430051 41.499134 -5.820783 -15.009298 15.924809
13 4 4.660749 50.056927 10.983139 5.360324 -3.378658 -7.981040
14 4 30.531279 14.336977 21.664419 -12.658973 -5.272542 -7.156507
15 4 11.276912 11.473772 10.881395 8.361959 19.154427 9.067701
16 4 35.893490 34.255814 20.906279 3.277393 -9.074908 -7.431094
17 4 21.014418 41.466110 44.833488 -9.377942 9.975272 0.344256
18 4 6.840981 50.027115 46.239536 -12.325684 12.434945 24.254810
19 4 35.195118 2.983074 19.712093 6.823154 -1.122360 -17.460556
20 4 39.266163 34.440765 34.347092 2.712050 7.986157 13.218782
21 4 15.183772 8.784302 37.621979 -1.790678 -10.418358 3.921302
22 4 0.656606 21.969070 35.854885 -0.903452 2.459601 5.721697
23 4 42.632675 40.906345 17.082842 1.386260 6.030701 3.709044
24 4 1.528880 1.030233 45.605415 -8.055316 17.887249 -0.830080
25 4 5.535930 20.630930 16.872093 -26.968309 1.891346 -9.139732
26 4 14.488139 0.190400 38.184536 39.199574 -1.296259 18.776241
27 4 31.512093 34.374886 24.125931 -17.345987 -8.282648 -14.166189
28 4 12.928256 46.182556 10.761098 -2.577004 -7.086628 9.123530
29 4 14.813372 43.052906 46.068954 15.158570 3.205799 -5.589715
30 4 3.921679 44.774651 38.333439 0.493090 9.479437 3.319218
31 4 44.650814 29.917210 7.859237 -19.217367 0.418674 -14.442241
32 4 45.196693 44.175877 46.061928 14.439641 6.660167 11.148531
33 4 18.335814 16.740698 22.046164 -0.140521 -0.059271 -4.134536
34 4 29.926977 33.078255 4.086163 6.223097 -2.168999 2.531570
35 4 11.100167 10.192326 1.640813 -15.888469 11.293400 -5.970211
36 4 46.944767 15.164302 23.205582 -10.278502 -11.551404 12.274180
37 4 25.361395 27.034767 49.906185 8.901614 -19.824568 -1.623461
38 4 13.282609 36.592209 17.098837 -4.111009 18.684807 3.599077
39 4 41.373257 34.814766 24.911978 -1.075155 15.527592 -22.611107
40 4 42.790417 35.384766 39.703373 -0.083592 -31.005762 21.765457
41 4 10.701628 21.321861 47.720932 10.486751 9.768897 -9.641647
42 4 31.299070 15.573605 39.347092 -7.560531 -21.149441 14.696784
43 4 10.480633 15.256860 21.349651 13.919770 16.796860 -5.352500
44 4 46.987507 50.045368 26.812210 -9.818645 4.117689 -1.841023
45 4 6.072442 8.921861 11.159883 -1.025935 -1.710926 -19.705267
46 4 3.537209 14.521047 24.493023 -4.835817 11.617799 22.970367
47 4 8.513721 24.619884 25.455698 1.370249 -6.077315 -10.042126
48 4 15.506744 26.758837 9.199186 -10.046531 -8.059786 1.942599
49 4 6.290284 32.503254 25.277557 7.303755 11.356176 4.000873
50 4 40.649250 42.296459 5.896047 3.030430 -4.896799 -3.879070
51 4 5.922326 0.978655 27.085880 5.075654 -0.864771 3.290288
52 4 23.907442 43.474766 0.903654 5.733182 2.177452 -2.851294
53 4 19.147326 37.111629 49.649834 -6.252278 -5.297742 -1.199188
54 4 18.469471 31.694534 14.562675 10.410514 -19.308702 1.932085
55 4 47.323784 39.417789 14.743139 -7.384623 14.496811 2.374631
56 4 21.305168 30.590000 23.600000 8.045804 0.653405 -8.694327
57 4 46.984486 16.539186 38.539883 -14.856852 7.913610 4.084781
58 4 6.633488 2.817144 0.092885 -9.269956 -11.054467 15.270532
59 4 13.547558 36.341743 45.335583 9.587063 -9.099085 -14.059836
60 4 38.709717 21.483372 26.932209 0.410103 26.038347 16.071989
61 4 10.878605 39.294537 12.278721 1.329939 -8.724192 5.572455
62 4 4.877791 47.384418 16.915697 -14.155668 -3.803010 -1.447176
63 4 8.979005 32.048370 20.583889 9.047556 11.537369 -10.341933
64 4 39.530117 35.632557 47.649769 18.488752 -14.854568 8.459580
65 4 15.071396 21.218838 33.677792 -5.439936 3.642923 4.099000
66 4 12.795632 14.904652 26.737675 17.376158 19.355881 6.269501
67 4 40.794418 6.288721 25.693373 -7.402271 -12.357556 2.598330
68 4 46.165413 16.803953 8.371679 4.563057 6.047812 10.006110
69 4 4.408488 23.295116 46.329250 -26.864635 15.284846 -10.228100
70 4 16.920349 12.755000 8.511395 11.436048 -2.945895 -0.738309
71 4 32.734421 17.507093 13.516976 9.675660 4.850985 1.167858
72 4 12.101744 10.336744 17.281511 -13.033664 14.450473 3.351838
73 4 13.638953 20.484121 14.887442 1.997196 -22.837744 -30.146048
74 4 24.669767 44.786282 12.358488 -7.862164 5.514623 3.910229
75 4 45.348904 42.778954 5.146047 -0.497352 -5.687756 15.383616
76 4 3.605930 37.394714 25.225466 0.892852 -1.321422 0.492185
77 4 15.420465 7.237093 3.471977 6.254241 -5.378054 -8.113605
78 4 30.843838 27.278023 1.068720 -0.193423 -5.925200 5.558471
79 4 32.667908 11.010930 15.696628 5.887316 -1.515555 19.977142
80 4 1.762252 15.707790 13.055466 -11.430580 6.118247 -22.412756
81 4 2.045813 27.197441 17.651743 1.766768 -2.069296 -1.984972
82 4 28.990116 21.619999 13.769651 -2.483419 -8.144098 14.697040
83 4 44.791344 13.507092 33.290699 -10.716401 10.308074 -14.456322
84 4 8.813372 16.627558 25.918022 3.247695 -9.396123 -14.589253
85 4 27.111977 37.079884 35.588257 2.441802 7.978959 1.380200
86 4 27.533140 31.213953 39.001396 -14.400664 -12.542112 13.664937
87 4 3.435232 40.925697 29.230465 30.790310 13.123156 -7.352801
88 4 5.105051 22.530233 31.919418 -30.714560 -4.134014 3.755227
89 4 42.615765 28.325581 36.997208 10.884156 3.505159 -7.013081
90 4 15.597094 25.234535 26.647326 -10.969743 3.911173 -5.309904
91 4 28.697208 22.039818 34.273487 2.380425 -24.743088 7.599613
92 4 43.300583 0.185973 45.518139 -1.739988 5.330228 -21.950645
93 4 49.908089 14.022906 46.672558 -6.818952 8.803946 9.553089
94 4 4.796512 29.299303 42.111629 -8.215223 -6.901597 11.986742
95 4 23.999418 42.314072 20.538954 14.089252 4.122563 -9.607223
96 4 15.845516 27.658489 50.194839 -4.343029 -10.396124 -2.369262
97 4 0.472071 15.550117 32.506161 -2.493235 7.276459 -3.992405
98 4 50.018604 36.294071 36.884304 1.542823 3.366642 1.185969
99 4 27.867094 46.297043 21.018488 -26.095695 -7.496330 -17.011560
100 4 37.228901 13.172442 28.877325 25.683159 12.838943 13.815736
101 4 8.219535 9.312907 46.971512 -9.120885 -4.304634 5.422483
102 4 19.295116 25.471977 45.955414 0.341110 10.639025 -10.239309
103 4 4.184005 16.262442 9.036395 -3.966688 -8.044696 0.269967
104 4 36.543022 15.710349 10.431512 4.028893 -11.199653 -0.721655
105 4 19.248024 29.562443 6.757791 -3.453433 -0.032542 1.626452
106 4 28.334652 47.405647 2.204883 12.361294 2.351363 3.979317
107 4 5.037093 12.376163 5.490400 9.712643 -1.956576 1.556618
108 4 30.145931 22.563139 43.895115 -8.064281 -3.786501 -8.013504
109 4 8.255168 33.025581 31.567558 3.211225 0.824840 1.883732
110 4 39.771046 23.080814 44.150116 6.562157 10.786641 -1.876828
111 4 36.620995 7.632209 23.879187 -6.626266 -13.052241 -4.584189
112 4 50.125889 0.759353 6.945400 -10.669763 10.540454 10.313077
113 4 35.361858 46.610348 0.573184 -8.447233 -15.339266 -4.817184
114 4 48.317093 29.040464 12.911628 -7.824432 0.921305 12.235580
115 4 43.949650 13.056279 49.679440 14.475796 2.586456 6.009854
116 4 24.791744 11.781744 11.351163 -6.019775 -11.527892 1.012675
117 4 6.920981 7.700465 0.508423 2.187451 -8.119040 14.252106
118 4 48.990295 23.424768 39.972324 4.760768 3.542735 -8.066751
119 4 14.257493 13.413372 40.762207 -15.837750 -13.508116 -10.727755
120 4 37.579765 29.072559 28.774767 4.299326 12.732159 8.181296
121 4 42.589016 40.801628 28.585814 13.921195 -5.348404 2.123635
122 4 8.608772 33.284134 15.517325 -5.432125 1.824571 -9.808068
123 4 42.134834 3.724651 42.538258 -8.948580 -2.633163 0.520087
124 4 10.910465 10.510814 43.051807 -5.847547 -1.015337 1.231860
125 4 9.889585 2.191563 13.019469 -0.886142 3.812649 -4.792715
126 4 34.401810 37.710880 42.828957 4.159345 3.647001 -1.731785
127 4 4.057209 7.051097 32.094189 8.440148 -5.881227 -20.675459
128 4 25.831629 39.158257 49.791111 -8.957703 7.659479 13.049690
129 4 46.011978 23.711861 5.490349 6.421951 3.641975 2.523945
130 4 48.746460 20.124302 10.735000 -16.501289 1.522809 1.103792
131 4 48.853279 39.950184 49.528393 7.849803 -15.925156 3.057491
132 4 6.884470 12.459187 14.372558 1.150697 32.498722 1.309911
133 4 37.165115 8.650349 15.957441 -1.533414 -20.043522 6.259575
134 4 21.895815 21.618372 33.173954 -6.005566 -3.820812 -9.313025
135 4 45.748489 7.190167 26.365000 7.727539 6.650441 15.293689
136 4 41.614418 39.210464 11.264237 9.809540 -4.886609 7.128166
137 4 34.582211 48.911396 39.306278 -1.773418 14.311159 4.142504
138 4 15.579884 32.469536 46.864185 -5.983573 -2.445972 -4.201530
139 4 1.440116 28.625582 47.431744 1.933192 -5.623903 -2.917222
140 4 4.328191 29.844999 20.554419 -3.417968 -2.521689 9.496281
141 4 34.033257 9.047093 30.973372 -7.719594 22.767572 -10.450376
142 4 18.765465 13.595232 19.154535 -6.618215 -14.036666 11.975059
143 4 11.299884 49.321587 31.958838 -0.081238 -0.431771 -3.885740
144 4 19.992376 41.285183 14.116162 -5.955044 -6.630062 12.771500
145 4 44.459419 49.598560 38.671394 0.791119 -0.884801 -9.474545
146 4 39.043606 33.218952 14.574652 -5.813276 14.213307 0.343948
147 4 24.724302 43.742558 40.918671 -9.801256 -13.344755 -6.349915
148 4 7.726511 43.591976 14.475465 11.877587 1.889819 -2.396260
149 4 36.729652 35.024651 8.139070 1.968172 -0.300934 -10.874276
150 4 14.999884 30.692907 26.465931 -6.836323 -12.178826 5.606691
151 4 28.025000 34.769653 19.907558 -8.273323 -1.584515 18.640671
152 4 22.721447 21.862209 6.118837 10.508169 4.704978 -7.442447
153 4 49.807625 7.462842 1.150051 2.800058 -0.170922 9.280959
154 4 8.528954 35.026627 0.703118 -1.452119 4.860187 -0.674341
155 4 5.990633 15.828023 44.200645 6.940608 -15.965169 -2.931097
156 4 43.044769 8.420814 50.140373 -15.392369 20.502209 8.700906
157 4 47.437275 22.564884 16.402260 -0.072869 -0.329318 12.165844
158 4 49.638096 7.241628 44.892624 -5.335243 -7.105015 -14.174344
159 4 35.004070 10.323139 8.741744 -2.083768 18.550722 3.275073
160 4 43.004368 8.652442 5.350930 14.128215 -18.101414 -4.286137
161 4 5.422958 7.085698 25.374186 16.030445 -8.196966 -5.816883
162 4 46.604485 24.419767 48.688320 -13.244797 4.723901 -3.091170
163 4 14.056860 33.998604 5.586563 4.043712 -3.650114 -8.612742
164 4 19.206394 20.950348 46.115414 4.963069 5.936406 3.424845
165 4 33.341511 45.371975 4.212377 -16.293669 -3.171991 -0.068340
166 4 44.028606 42.814651 32.413372 17.306368 -0.197386 5.752917
167 4 49.194599 46.296513 13.066744 -0.109950 1.470280 -3.927707
168 4 11.824303 46.703259 16.233604 8.856072 -0.531474 -12.842493
169 4 16.104418 40.102509 7.813604 -9.628868 0.704105 19.559454
170 4 33.645531 4.859303 33.465000 0.207742 -7.577357 -11.197622
171 4 8.180516 8.511046 39.308437 -11.934851 7.327464 11.690607
172 4 40.346394 6.296214 9.533837 1.781942 8.094360 -1.621836
173 4 43.671047 36.720066 4.616395 -3.089593 -9.622051 -1.332067
174 4 26.991280 48.702114 17.060698 15.300619 -4.119484 -1.917542
175 4 35.329601 15.880233 23.355116 0.278706 0.273858 -0.021979
176 4 5.531860 14.813721 34.175415 -9.016246 1.667396 -0.513153
177 4 19.833075 30.950348 2.372609 13.578203 4.300316 4.354312
178 4 48.670761 30.528837 29.987740 -21.663210 12.326941 -30.454098
179 4 7.578256 17.852209 4.893721 -5.025923 -12.082423 17.059156
180 4 48.920486 26.128256 21.086512 -13.199353 -7.217985 -6.209477
181 4 49.459904 39.920933 43.992210 -2.944722 3.733363 0.950057
182 4 9.494651 41.111046 42.885647 12.626174 8.132419 5.158188
183 4 5.742842 46.112621 2.813656 -5.475909 -4.182160 -5.186109
184 4 46.315231 3.827260 43.083786 12.167080 7.392743 -8.647037
185 4 30.768372 3.487190 13.723256 -11.194388 5.181924 4.367138
186 4 26.229418 37.097790 15.620349 8.749940 -2.535998 -17.299866
187 4 34.501629 28.959999 6.317093 -4.915090 -12.034260 4.125742
188 4 37.330231 50.115414 2.760697 12.683802 1.117757 -14.740924
189 4 18.787907 18.930931 27.479534 -20.559860 1.795936 16.488573
190 4 11.965349 28.929884 31.365530 4.624355 -4.492375 8.770247
191 4 5.995000 35.801628 10.093140 2.317061 -8.307226 0.518964
192 4 20.262209 49.403439 17.258539 6.763458 18.036049 -22.188301
193 4 26.506628 50.176067 47.806744 -8.277791 -4.139886 7.243202
194 4 30.727907 14.918605 28.067209 -7.531531 -15.566978 6.600340
195 4 46.837738 8.945116 15.256628 -18.053455 7.811304 -4.503045
196 4 18.979586 13.476512 38.759884 19.624027 3.338694 -7.247937
197 4 45.710697 0.013073 15.067675 0.463895 -14.041570 -4.987039
198 4 32.402325 45.559185 15.582674 -7.444461 14.883326 -1.792964
199 4 41.055580 43.177208 24.716047 -6.622290 -2.178325 27.737438
200 4 44.697208 34.017559 12.180581 -7.515945 3.191823 -18.429640
201 4 35.876629 31.036461 2.953605 8.020512 1.791502 5.597943
202 4 32.441860 1.053888 23.301861 -3.994967 9.038808 -4.997775
203 4 19.554768 43.342972 32.110466 4.429854 -4.621142 15.433757
204 4 38.668022 1.101046 38.833603 11.609244 10.963726 7.843006
205 4 22.281744 49.679672 35.923489 6.443775 -5.863158 -18.942318
206 4 40.657909 24.312092 50.065998 -9.720420 -2.899130 -3.767587
207 4 24.608141 35.248024 11.239120 -12.114473 2.898224 8.571107
208 4 4.228721 41.138256 46.797672 20.005136 -10.972076 1.721015
209 4 23.855749 35.378021 28.839302 -9.261302 13.713743 -7.416450
210 4 49.380814 11.154120 38.853024 -7.498878 -22.910902 12.649802
211 4 23.471628 44.890530 25.934418 -14.181134 16.197065 -5.076512
212 4 46.195580 49.059723 32.209305 21.912586 12.040291 16.974258
213 4 34.576511 35.452324 37.557209 -5.528332 13.973263 -3.478709
214 4 23.724419 18.883139 21.177210 11.772938 -10.680734 1.296146
215 4 36.674419 20.422441 16.410866 -10.449175 10.625392 -0.527530
216 4 47.155296 27.358139 43.290878 -0.635516 -10.856166 4.684373
217 4 10.974121 28.871628 16.333773 -11.716807 4.044958 8.496773
218 4 49.427906 20.217325 44.888721 7.319308 -10.047999 3.999695
219 4 38.855812 5.466912 34.714951 -5.496060 -7.347689 15.266250
220 4 43.431343 47.812042 2.645232 3.716998 9.346447 -9.010909
221 4 10.647326 21.226860 3.862209 16.776779 14.833638 9.240247
222 4 7.905349 25.885466 6.765582 -1.237516 -2.533212 -13.270741
223 4 25.951279 34.504768 24.440697 -0.375148 -7.749853 -7.576067
224 4 17.585400 42.926514 24.600349 -11.264901 10.200227 -4.368789
225 4 48.695530 37.206512 10.917210 2.352089 4.540032 4.510931
226 4 11.044069 41.378487 28.696693 -1.530594 -6.897876 6.138027
227 4 11.219884 27.648952 2.542260 -4.324317 4.184227 16.695972
228 4 3.695000 20.903837 42.532791 10.255045 -12.451804 -20.477009
229 4 24.836163 3.320116 31.001280 9.092106 15.800204 4.187147
230 4 10.076395 10.704470 31.305349 -2.701901 -10.753350 -4.687289
231 4 14.142093 46.770233 27.943605 -11.430062 5.799090 5.168859
232 4 5.920116 27.834768 36.775349 -14.479279 -5.800115 -4.605424
233 4 10.524005 35.171860 38.792557 14.067748 -11.001115 0.579900
234 4 40.403255 40.772442 41.043839 8.505916 11.523513 -13.921411
235 4 29.069187 35.097507 41.280582 12.585018 -4.843403 -7.263195
236 4 17.877907 2.322144 45.758785 -1.726706 2.284579 1.597878
237 4 25.544651 38.300812 4.665051 14.800993 -0.595046 7.797783
238 4 14.357609 23.446396 43.512791 -12.930457 10.127959 -2.271677
239 4 43.257793 36.429649 43.768372 7.150626 -2.252514 2.822320
240 4 44.778023 23.419069 24.090000 24.076155 -0.853032 -18.744558
241 4 20.299534 14.267841 31.749767 -13.592799 1.337426 0.305936
242 4 41.645699 44.283024 37.543953 6.572963 8.696774 6.655210
243 4 43.022789 30.323023 25.310349 -23.361366 -23.744764 7.955545
244 4 35.928604 46.710415 22.661743 18.494968 17.060322 -2.304378
245 4 27.258606 3.975865 36.104069 -14.661324 -2.512739 -0.662793
246 4 30.182674 41.247211 32.061394 -8.628318 -2.934608 -0.967083
247 4 26.024071 14.814884 16.793306 6.850904 0.292102 5.714467
248 4 31.656860 23.037092 50.268837 9.237695 2.306686 -9.387888
249 4 34.106510 13.130930 45.271927 -10.418130 9.549147 2.535765
250 4 18.182093 17.913954 7.169651 4.268000 -2.638372 -0.122122
251 4 35.598721 28.580465 20.498024 -0.859446 -9.561380 -9.317542
252 4 16.854185 46.891113 19.887325 -0.648414 10.736193 13.535756
253 4 20.643488 4.686163 7.984819 6.793791 -11.600264 -10.954145
254 4 11.548605 17.188721 43.179184 -6.353465 0.641155 4.008366
255 4 10.857558 6.345930 28.846046 -16.743885 9.715609 -17.895214
256 4 0.255865 26.869303 3.670000 20.932890 -3.810295 10.394275
257 4 44.369652 29.921045 16.292559 -19.125837 -6.593077 11.155423
258 4 21.719650 7.849419 12.128372 11.514811 -5.330787 -7.075776
259 4 34.664536 18.910465 4.639935 -4.540572 14.877551 -3.099640
260 4 33.551228 24.847790 37.432674 -0.522676 -16.133152 -0.193244
261 4 49.765717 37.939533 19.768488 -1.498127 -5.054732 3.338603
262 4 19.396511 49.377857 41.591743 2.473508 23.169525 8.571005
263 4 30.389301 18.991861 18.860001 12.206559 -4.075346 -0.123714
264 4 16.753372 12.069702 1.870051 -9.195588 9.788445 -14.125785
265 4 38.421394 45.528721 47.838787 -2.882628 -10.491714 8.422674
266 4 19.054186 44.929302 4.632493 16.312017 3.305553 11.164586
267 4 31.952093 44.123718 40.478603 -22.587645 -16.099510 -7.604252
268 4 50.032742 42.422043 24.803953 18.314974 -8.013368 -8.318971
269 4 11.640698 16.034651 7.917442 -3.888492 14.547798 2.312471
270 4 15.999070 6.936279 22.861046 5.978497 -0.798999 -12.309611
271 4 34.694653 17.234652 47.368092 -7.429868 0.937819 7.669831
272 4 44.994652 2.683023 7.778023 -16.827724 -12.427696 -12.201509
273 4 48.166462 13.216977 17.159586 13.783290 -25.150137 -0.729454
274 4 12.896976 37.581512 2.554811 -8.788287 10.694015 -21.264330
275 4 48.458393 12.820930 4.841047 10.165449 -0.741598 19.248606
276 4 20.317907 21.273140 0.552325 9.454360 -1.592683 1.311050
277 4 3.931214 30.770350 2.936861 11.440065 14.142246 9.556875
278 4 41.185066 47.382042 13.817791 -10.120585 -0.089253 -13.791853
279 4 7.928721 19.481047 9.617145 20.546715 7.858812 9.199775
280 4 4.452209 10.715981 42.692043 7.872273 -7.991365 -5.775861
281 4 28.603722 42.665581 4.153307 4.154386 5.686322 8.889079
282 4 40.221577 45.570351 42.319885 5.903393 -8.964432 -10.699413
283 4 14.747559 25.167210 19.253139 -4.000900 -4.369250 -0.398327
284 4 8.753772 3.770465 34.221745 2.434135 -5.740993 12.305376
285 4 40.162392 13.709934 18.092558 -6.930262 10.246674 -13.965294
286 4 10.028024 1.082137 24.338371 -0.394807 11.735573 9.827132
287 4 28.777557 19.235001 5.268888 -0.942053 5.319393 -13.971701
288 4 14.142325 23.932558 1.891788 5.872400 -10.024392 -12.031051
289 4 1.709651 45.644718 49.195023 -5.643811 -3.758345 4.811143
290 4 18.121511 9.828656 15.015233 6.441230 5.266363 2.665242
291 4 8.913256 38.321163 17.816860 4.623118 4.056519 3.128827
292 4 22.675814 15.511279 41.611164 8.540745 13.016868 -2.151030
293 4 1.130581 22.461512 30.276396 22.987661 -20.921619 8.694515
294 4 12.288307 30.397093 10.849186 -8.855203 10.889462 -15.640699
295 4 43.067558 14.471976 12.277326 -1.675123 8.273739 0.974737
296 4 27.521860 19.615116 29.950697 -3.564600 2.432316 1.664059
297 4 34.513138 40.904068 48.844303 -3.846429 2.304220 -4.787651
298 4 38.622440 29.756512 33.254185 4.805739 -0.086456 20.378263
299 4 20.213604 27.899418 28.535349 9.709189 5.530393 3.471593
300 4 39.125530 28.417210 17.390814 4.927782 6.012940 -6.474701
301 4 2.945465 45.465115 7.623256 2.020582 -2.166378 6.787982
302 4 49.004841 43.185997 9.403540 -3.555648 -1.299817 -4.209302
303 4 35.753605 16.663954 40.985580 11.754294 7.296020 4.954071
304 4 32.062675 33.347790 16.834652 -13.831433 -24.033915 -0.601812
305 4 37.349304 41.915413 14.526679 23.855982 16.559532 -9.501794
306 4 25.717325 4.757675 48.427044 2.249033 -7.871187 -2.985229
307 4 35.431576 24.238836 11.027326 -20.423138 -13.060081 8.256694
308 4 4.563024 10.440865 20.728838 -13.991864 18.031288 -12.674734
309 4 9.059884 40.568836 50.165306 -5.040183 -16.558840 17.474947
310 4 9.365400 24.114534 41.502094 -8.151727 -5.547658 -16.330816
311 4 37.736511 22.441860 37.857792 4.558981 0.883532 -1.851954
312 4 22.484186 47.410816 45.417095 -5.517926 14.582251 -10.831312
313 4 9.042027 38.562973 25.492092 4.099567 -4.175188 5.987600
314 4 48.634071 47.096302 40.821110 -9.192718 -1.449737 -3.100560
315 4 47.149651 6.174819 9.456279 7.768608 10.026473 4.598348
316 4 31.452559 44.503784 10.491744 1.044828 -5.216968 10.728805
317 4 31.548023 1.840814 2.976279 4.603542 11.208129 2.869970
318 4 17.834768 4.538837 28.465349 -26.215796 -11.227177 -18.541153
319 4 22.614302 19.616861 11.066628 21.814587 15.008693 17.828791
320 4 15.338489 49.410370 0.098655 -5.855411 -0.182597 7.623834
321 4 22.935232 16.318722 29.805233 10.134242 -9.618115 -8.646852
322 4 2.661911 23.824884 6.951396 -10.726593 -5.143166 5.781297
323 4 38.406860 46.569252 7.924535 -7.081668 0.304030 -6.084657
324 4 33.258720 23.427094 5.413372 10.745460 4.091712 12.547387
325 4 4.856279 23.188555 11.489651 -14.395539 7.399663 -15.534061
326 4 49.927464 3.044818 26.756809 -0.641891 -12.327946 18.825121
327 4 14.068139 43.109020 0.721628 -3.388153 17.442013 6.964795
328 4 39.216278 4.490981 2.036098 0.438878 10.162880 -7.096129
329 4 31.747908 32.868141 30.530581 -2.009536 -5.796020 -15.860062
330 4 32.549652 23.283606 29.290581 4.390512 15.551977 17.018888
331 4 26.039768 24.471279 44.471397 -5.277539 -1.895408 0.266195
332 4 46.346279 14.061976 27.100929 2.932762 -0.779190 3.594043
333 4 24.029652 4.391163 24.838488 12.772266 0.897557 6.395460
334 4 19.892441 0.881278 6.152842 3.588523 -12.657500 2.268083
335 4 20.205349 9.972493 43.751347 -3.082460 3.255763 -4.877115
336 4 20.257792 38.445995 3.781512 2.466161 2.098504 -0.570440
337 4 31.775349 7.063888 48.228096 9.382495 2.000648 -11.584431
338 4 10.239534 45.326393 36.793205 -2.135778 11.469664 0.671515
339 4 30.617559 37.113720 0.220465 -2.800642 -5.033266 -11.663194
340 4 27.655231 26.572906 6.630517 9.835613 -16.635967 3.817555
341 4 43.503090 23.337791 41.602158 -10.383924 -4.761103 5.065439
342 4 3.171679 38.790001 4.946911 13.320140 0.459434 14.364410
343 4 39.076279 47.519421 33.975349 -19.858995 0.248281 -9.227276
344 4 37.919765 29.887093 40.237041 3.318426 1.357629 -9.084782
345 4 13.283488 47.401226 5.670581 -2.451609 22.266155 14.566416
346 4 38.975464 0.927027 6.982260 13.687873 -9.155629 -12.747231
347 4 16.397326 49.638668 33.364883 4.932590 3.563971 11.049773
348 4 19.460167 15.873372 13.831395 2.219790 -5.695117 4.327555
349 4 42.175182 50.186417 23.768837 19.863356 -14.061738 -4.617503
350 4 16.064884 10.842326 24.824303 1.302455 0.103783 1.787262
351 4 4.155349 19.756977 26.273838 -1.768685 1.433792 2.820450
352 4 1.245930 7.619651 14.105865 1.042104 -1.999923 -0.473086
353 4 21.455349 22.673489 40.590000 -6.919269 -7.217094 -8.636021
354 4 12.700698 39.263256 21.472790 4.486437 10.200126 5.585823
355 4 4.231163 33.153435 40.259251 0.992915 10.395658 1.505776
356 4 20.371162 1.973772 1.771047 -8.320908 -13.772747 2.048578
357 4 15.954768 35.870583 11.946860 5.258995 -1.457210 5.254317
358 4 19.606512 35.860813 18.194187 0.156607 0.458247 -7.089154
359 4 43.613670 12.309768 22.186745 2.472054 -4.768960 13.101184
360 4 11.574652 4.335749 43.584251 -6.635664 14.349315 -5.124258
361 4 15.353140 1.308881 12.394419 8.147125 5.398954 18.772774
362 4 14.556911 14.293888 33.196861 0.679639 -17.299631 3.652171
363 4 44.868374 45.859882 11.221977 -14.787699 -7.216951 -0.364102
364 4 24.920349 44.791462 32.916977 12.527492 0.580431 2.801911
365 4 4.433837 3.797209 13.378605 -5.891406 3.275028 -5.648167
366 4 4.215117 6.961279 36.912674 15.648698 -14.051845 -11.879629
367 4 25.935116 8.506911 44.937557 5.153322 8.967581 8.319482
368 4 14.498837 41.616344 39.530064 -4.157087 7.868130 -9.022423
369 4 24.840698 2.846977 3.487209 5.520206 -2.033486 21.553162
370 4 18.056860 21.918837 11.867209 -9.733315 1.921149 -1.354245
371 4 25.431047 8.122842 8.061627 5.177430 -2.179331 -8.012562
372 4 6.458256 44.590466 22.063488 -6.316428 -4.635580 2.816404
373 4 23.862558 31.983255 7.731563 -0.478410 14.190326 14.992552
374 4 18.158489 35.663437 40.283836 5.079534 -7.688600 -12.900931
375 4 24.446047 3.250749 20.030815 -8.666774 -4.969133 2.105518
376 4 23.244070 31.620697 30.167210 -0.811026 -6.562693 -8.407407
377 4 14.668372 31.827209 21.195400 6.044793 2.783518 13.412724
378 4 29.826977 30.609768 45.762791 8.468386 -0.385312 -19.256247
379 4 28.700001 10.443074 49.669136 -21.129566 -16.266075 5.939026
380 4 38.399769 39.663258 22.947441 7.987225 7.846746 2.739567
381 4 34.093487 41.191162 25.769768 0.898450 -8.548771 13.491796
382 4 0.500443 45.185230 43.695415 -12.620225 -1.168479 -15.569171
383 4 41.042793 37.995930 0.389469 11.546289 -0.854837 7.579321
384 4 48.074951 26.639185 32.834885 -3.696157 14.560586 2.710289
385 4 8.040697 8.214535 18.333191 7.247364 -24.175863 13.204892
386 4 12.788023 3.550981 48.366810 0.472027 11.594318 -18.480700
387 4 24.372675 45.300232 7.543489 -19.022785 -1.885748 5.557673
388 4 39.385582 1.147536 26.870001 -10.952411 12.121287 16.353630
389 4 24.629070 35.425350 45.244831 -4.144282 2.825955 0.389236
390 4 29.100582 29.522675 11.374070 -5.349285 -11.924415 5.421130
391 4 46.476860 45.308605 29.271627 19.234938 -8.546661 -20.144411
392 4 0.036090 30.789650 7.868837 -0.229853 1.929121 10.053244
393 4 5.040581 22.298023 0.167261 -12.705269 -11.643630 -5.598402
394 4 32.589069 32.401165 35.127792 -2.297277 11.521203 4.125722
395 4 18.234535 38.847557 30.589186 -21.783165 -19.098213 -10.395187
396 4 43.203255 16.422144 2.367305 0.988666 3.217461 15.543386
397 4 28.601162 42.247974 45.146809 -4.744293 3.704601 3.733902
398 4 36.351978 49.885605 12.803023 10.147183 -10.852559 -1.747578
399 4 40.303436 14.669470 4.866279 -6.109336 19.813314 6.434136
400 4 7.007377 47.077507 28.637209 0.063941 -14.371639 4.012125
401 4 43.749886 3.768837 33.307323 -2.049907 4.607335 -5.597937
402 4 42.795116 23.412674 12.840233 1.379505 10.177919 14.189448
403 4 27.381512 25.005465 24.539303 -5.376314 -2.142198 2.102621
404 4 42.281975 17.839186 35.098141 9.363242 -9.528897 -4.387295
405 4 40.662506 10.825168 40.370350 -14.986838 9.120124 -5.950985
406 4 6.215167 39.629948 33.735996 -3.799355 -3.514715 2.924232
407 4 45.443954 1.800116 49.404026 4.928497 -10.052864 24.099010
408 4 45.139301 9.066395 37.833603 17.555861 3.553829 -18.958706
409 4 40.010815 17.063023 22.626163 -8.350584 9.213564 5.963075
410 4 25.231047 9.919819 38.830765 8.930553 -5.381306 -4.616493
411 4 19.978024 45.034187 0.168720 -2.451344 -4.922174 8.226152
412 4 29.841976 41.611809 24.813837 -4.745145 -14.216238 8.401504
413 4 35.830414 2.365051 45.701630 4.678296 13.228016 -4.724033
414 4 9.750000 32.690815 44.245995 1.876005 -2.644329 2.817329
415 4 9.002325 44.360931 6.392028 -5.186932 -3.203028 7.059055
416 4 28.310116 25.761396 39.866394 -10.859997 7.304408 -7.151811
417 4 20.550930 49.004486 29.783140 0.858984 1.993296 -2.126545
418 4 45.410118 14.388372 43.386345 7.640669 -5.090993 -4.270660
419 4 39.547092 31.549301 5.752674 3.103933 -1.239793 1.662954
420 4 26.975698 18.649071 24.451860 -5.787077 27.369612 -10.405022
421 4 28.125465 12.571214 39.084301 -17.849319 -2.206964 4.672581
422 4 10.768604 45.384716 21.167791 18.481321 0.907157 4.190351
423 4 29.350233 14.647674 33.372559 -2.172075 8.248056 3.499819
424 4 8.203773 5.912558 6.662325 1.471956 -5.281888 -6.879822
425 4 41.426811 26.700464 4.438024 14.323525 -2.467117 11.668072
426 4 11.532442 23.243023 29.998720 9.849475 1.166147 8.849367
427 4 20.602791 30.013954 39.057972 -20.910450 -7.565234 -4.408618
428 4 34.318024 10.040233 2.995930 13.152946 8.276805 11.873810
429 4 1.572072 35.097908 3.153256 9.059264 -7.090176 -6.679134
430 4 42.180115 29.193140 47.973328 -6.154809 3.767735 -9.642262
431 4 20.443024 35.938023 34.799999 8.668105 14.374547 -9.155099
432 4 49.804142 33.590996 16.447094 2.229843 -4.013038 13.692506
433 4 41.830814 2.799302 15.187325 -10.534065 0.556279 -8.018630
434 4 41.292274 8.865116 31.752558 -0.924291 0.119074 6.600405
435 4 47.211815 10.563140 9.646047 22.822454 14.506349 0.790045
436 4 31.054651 47.875484 31.143023 -1.919859 2.635002 -30.227209
437 4 8.447442 15.826511 37.756111 -8.468962 1.461924 12.861600
438 4 7.856977 40.989071 9.351512 13.713390 4.664095 -10.059071
439 4 30.273605 40.891228 13.997210 -24.760532 -16.973787 -1.151279
440 4 2.878372 49.508160 32.229069 3.127376 14.233669 -1.187786
441 4 25.297325 19.686861 39.325695 4.601055 0.938170 1.856619
442 4 18.284185 44.840233 40.174767 -8.669613 1.392789 4.214367
443 4 34.350929 28.635349 42.277390 15.007635 16.818954 4.376698
444 4 49.522209 41.687790 4.267558 -17.097435 -16.076508 -1.887969
445 4 25.389767 32.201046 0.616679 -8.473639 2.285430 -10.002702
446 4 48.156227 30.262209 36.531395 13.250557 -9.860564 7.322784
447 4 4.896447 36.477676 44.643024 -14.358293 5.517550 -22.139700
448 4 47.271976 37.757275 26.658554 1.068179 -10.717423 25.380730
449 4 28.482674 6.257209 4.670749 3.980754 0.578245 -8.396638
450 4 8.003605 20.198256 38.058670 3.377109 -2.823531 4.585463
451 4 28.389536 11.836163 7.007674 4.098272 -1.436099 3.106063
452 4 17.981163 4.354767 16.176628 -7.494933 15.260868 -12.758140
453 4 0.691277 7.162791 20.010466 14.989678 -12.815488 9.876795
454 4 8.282442 31.417210 5.275000 -0.465659 -2.528745 -15.004413
455 4 4.407377 30.521627 12.124418 0.972983 21.199772 10.825191
456 4 43.927509 36.997326 31.918604 -13.284355 -11.835613 -15.427178
457 4 6.576046 0.761789 39.481228 -4.230886 16.958841 2.315120
458 4 11.476512 1.844651 6.429935 13.338058 -3.430867 2.450421
459 4 1.825981 4.430930 40.782791 -10.582802 -0.193001 -18.128962
460 4 31.535698 9.876861 22.546976 5.271785 -5.215068 2.224808
461 4 40.640648 19.258604 12.884702 -1.692555 4.024081 16.735794