ITEM: TIMESTEP
0
ITEM: NUMBER OF ATOMS
585
ITEM: BOX BOUNDS pp pp pp
0.000000e+00 4.981510e+01
0.000000e+00 4.981510e+01
0.000000e+00 4.981510e+01
ITEM: ATOMS id type x y z fx fy fz
1 3 24.618093 12.498191 27.593428 5.619514 0.686592 -5.881642
2 4 22.273462 15.235385 30.705000 -10.545678 -6.010154 6.146150
3 4 22.771923 18.453941 30.025097 23.130558 5.895122 9.701427
4 4 26.552307 18.703077 26.495001 -43.533123 5.036933 -52.446404
5 4 22.914711 15.234712 23.721251 -16.116962 9.881001 -17.294683
6 4 20.164230 19.031250 21.866732 6.043306 -24.500759 -1.653825
7 4 25.345963 21.780384 21.857788 -4.016733 22.976849 8.960774
8 4 23.586441 25.751539 24.600962 2.708667 4.709488 3.979078
9 4 22.858557 23.484905 28.198942 13.340178 -19.991938 -11.774008
10 5 25.915810 22.247620 30.656572 -22.927214 1.862600 -11.721839
11 1 14.881279 12.625464 40.420116 -5.316415 0.278835 -12.232860
12 1 47.231045 34.644417 20.329185 1.373821 -2.561067 -8.487891
13 1 46.012791 1.208605 13.331744 -4.762544 -4.346517 -2.551774
14 1 45.701397 18.540464 37.392326 -1.083955 4.818086 0.006332
15 1 14.046395 26.702675 39.707211 11.518687 10.118017 -3.570619
16 1 11.720117 47.940697 30.498720 -1.565322 -9.965390 1.116227
17 1 21.545815 14.607326 45.824070 -8.037868 -0.977176 0.966982
18 1 42.130234 41.484303 33.395813 3.273415 0.218270 3.116939
19 1 26.348022 49.010918 30.652790 -3.766536 2.618601 -4.661231
20 1 7.433489 23.775465 9.190116 -1.582859 1.558868 -1.081472
21 1 8.022675 25.637209 42.936047 5.603599 -5.666339 1.554789
22 1 32.924301 1.220714 19.559301 7.303435 3.933553 4.321198
23 1 4.676395 16.771860 16.406046 0.316074 2.349661 -1.367791
24 1 2.650465 28.056627 21.813953 -0.710158 2.444056 1.477715
25 1 24.667791 26.252327 43.857792 -5.043312 -7.391917 -2.201101
26 1 48.440697 27.901512 49.514420 11.081216 0.470932 -9.394183
27 1 14.263605 40.803722 43.580582 0.070317 -0.720196 0.272938
28 1 39.623489 1.637442 49.652325 3.231360 2.789358 2.478892
29 1 7.524302 42.201630 35.942909 3.435761 0.537872 4.539667
30 1 20.545349 5.624535 43.488838 -1.306798 0.903987 2.081068
31 1 41.428490 26.111395 40.533604 0.730947 -0.082154 -2.910056
32 1 13.101279 21.728024 21.957211 -0.259943 0.862339 -2.067308
33 1 44.891396 39.870117 44.683605 8.045390 -1.791062 -1.110291
34 1 6.370465 38.974766 6.123488 -3.569160 0.128286 -3.654345
35 1 35.199070 34.564651 20.694069 -2.503078 2.954920 1.718921
36 1 38.136280 36.680233 15.474070 0.138033 0.563953 0.755807
37 1 46.295231 10.665116 30.870697 4.354311 7.147629 7.804236
38 1 21.131861 27.421164 34.713837 4.341196 5.343442 3.243758
39 1 21.529419 4.067558 15.289651 0.506097 4.817334 -1.753025
40 1 26.218954 4.056279 25.694302 2.970977 0.139782 -0.036936
41 1 27.680466 16.883371 23.862558 36.709549 8.456405 61.895393
42 1 10.899186 21.083838 17.300116 -3.293341 1.290860 1.580913
43 1 38.243141 16.147326 6.697326 11.838118 4.292612 -8.053070
44 1 28.072092 29.847675 3.302791 -1.604321 5.745099 -3.925901
45 1 30.515814 5.410582 45.298607 -5.166512 -1.758178 6.370603
46 1 5.298488 16.475117 47.473835 -0.788589 -0.891500 -2.678897
47 1 3.887791 49.778141 35.971977 4.710096 14.669071 -2.893706
48 1 41.002209 3.744302 5.324651 -1.540996 -2.244703 -4.837502
49 1 6.806628 5.906977 7.146047 -6.678299 1.464473 -4.406691
50 1 8.725930 12.407093 14.753605 3.137281 -0.538948 1.821759
51 1 38.153137 41.190464 8.473372 -2.156656 -0.607163 -1.883761
52 1 4.393953 4.442209 42.431976 1.781654 -0.452222 0.260902
53 1 35.464302 8.677791 42.211979 0.266546 6.492076 1.336973
54 1 19.274767 24.628023 46.751629 -6.141943 -0.513585 -3.883454
55 1 1.160930 24.283836 34.212673 -3.818579 8.775288 -9.786144
56 1 30.475815 13.053140 2.684535 -10.804158 -4.192924 6.031385
57 1 42.325932 42.154533 39.253139 4.708339 3.235940 -1.833226
58 1 19.580582 39.125580 17.750931 -10.368465 -0.130930 -2.511872
59 1 29.244535 10.497442 9.690001 1.834696 -5.516901 -4.474374
60 1 23.591396 31.719069 6.588837 7.300143 -1.079800 2.560923
61 1 32.056976 22.832790 36.676395 -18.970129 -8.479838 5.964926
62 1 21.820581 7.011512 30.495581 -2.152211 3.596525 -5.223247
63 1 42.859650 16.676512 33.326511 -0.480202 -6.966128 -2.790163
64 1 42.679420 46.532677 41.178486 -5.118204 -0.134355 1.223272
65 1 9.362558 47.140114 46.257790 -2.156552 -2.325924 -3.521342
66 1 21.735813 10.056745 40.859535 2.002221 -2.386787 -1.131827
67 1 16.622326 31.970348 6.459884 0.833121 -6.868876 -7.480792
68 1 24.240582 5.028837 11.418721 1.036699 0.077394 -0.515586
69 1 7.233256 19.923256 23.719419 2.631129 -4.690195 -0.664751
70 1 16.028837 46.279766 17.734186 2.350349 4.646268 -0.005570
71 1 29.410000 30.396976 33.304184 4.905920 3.961164 9.504831
72 1 35.886978 27.081629 47.706398 0.790481 2.553400 8.263104
73 1 40.540581 6.906977 44.403255 5.263793 -0.576816 4.756389
74 1 26.843023 6.533953 40.936859 -3.387137 3.015230 -2.444280
75 1 28.332325 45.023838 26.637674 -4.778115 -2.167897 -2.907813
76 1 19.485931 49.643490 5.088721 1.486194 -3.409156 1.256259
77 1 3.366744 11.359418 11.920582 -2.516068 -5.194351 -2.158722
78 1 24.710001 43.708721 0.967908 5.692703 2.611758 -0.604235
79 1 27.744186 16.216513 4.826511 0.421632 0.766930 -1.980435
80 1 5.104186 10.799186 27.456280 -2.350152 7.715431 0.305080
81 1 33.895348 24.354883 19.092442 5.458681 1.808839 4.712488
82 1 32.881859 7.638372 3.560000 -4.989086 0.373866 2.233413
83 1 36.753719 14.938604 23.716045 -7.004010 -4.241326 -1.389661
84 1 12.820349 44.964767 3.765930 -5.941192 1.147052 2.049516
85 1 3.959070 41.421978 0.450581 9.232436 -3.745898 -6.163306
86 1 15.260000 23.408836 13.673140 5.122175 2.174298 -1.279416
87 1 44.325584 0.153488 32.144882 3.395897 4.693993 -0.298739
88 1 48.416744 44.416046 47.286163 -1.562328 3.207435 0.418102
89 1 7.749419 36.920696 15.376861 -0.371626 0.841974 2.182590
90 1 26.219303 12.924302 42.663139 -8.160341 -12.646465 -6.325231
91 1 17.151628 28.291162 17.610348 1.701841 2.860043 -6.853268
92 1 4.955930 47.161514 29.807907 3.028519 6.806830 1.522289
93 1 18.194767 9.875930 5.956279 2.208314 -3.261244 -1.763052
94 1 47.556164 36.797905 28.770350 0.320345 -2.200401 -0.186046
95 1 16.770464 25.783024 35.447792 0.293873 2.520672 0.335593
96 1 10.000000 6.917675 10.891279 -1.092866 -0.538110 -1.096196
97 1 31.383255 25.846977 32.275814 3.470691 0.058124 -3.771748
98 1 17.951977 20.792093 8.721977 -1.448222 -1.877666 3.167907
99 1 16.203953 25.397675 22.928255 0.957310 1.419332 -2.451477
100 1 39.264652 30.260349 5.847674 -5.769939 -6.601864 16.287460
101 1 32.558487 20.368139 31.300583 0.999072 0.567032 5.623379
102 1 3.728605 16.218140 32.577091 2.722183 1.925666 -2.508361
103 1 31.314535 1.978256 13.894535 6.845716 1.679326 -8.756823
104 1 13.636395 3.572093 29.001745 0.406272 7.245769 5.740728
105 1 18.311163 45.140816 44.565346 -14.097289 1.404359 -6.342569
106 1 19.080814 27.575233 6.286511 2.224525 1.155597 -0.809733
107 1 20.091862 31.775232 16.339767 -1.676072 0.321007 0.084128
108 1 14.911280 49.736382 41.583721 -0.079951 1.948641 -4.419214
109 1 8.557442 22.638605 49.426743 -2.392016 -0.124481 -1.163720
110 1 37.032211 12.203837 37.631393 1.842838 2.408345 -2.461191
111 1 16.696861 27.543024 44.114883 0.203508 1.691873 1.859602
112 1 7.632558 34.995930 44.727558 -1.048148 -1.593622 -1.996843
113 1 33.019184 22.881975 27.603836 2.710478 -10.956017 3.491630
114 1 42.360348 12.777442 38.620464 1.984520 -1.576851 -0.143271
115 1 22.993023 19.830000 6.460000 3.898198 1.212286 -1.376456
116 1 38.495583 42.917442 46.217442 -2.154226 7.683674 0.752082
117 1 33.897324 45.052673 22.220930 3.728957 -1.718317 -3.483324
118 1 43.545815 22.172791 33.193256 0.608727 0.212503 2.121940
119 1 47.587311 25.156395 23.327326 0.237612 7.381960 0.472847
120 1 22.879768 1.089302 19.359768 -4.192946 -3.500142 5.304126
121 1 13.093372 36.608952 42.563023 -0.035586 16.286844 -3.356935
122 1 5.409186 42.674999 16.949652 0.218325 -1.629719 -8.412441
123 1 13.894070 12.928023 5.000349 1.577146 1.815871 -0.269584
124 1 35.781162 39.428024 31.482790 1.376381 0.648356 -0.817861
125 1 16.163372 38.038490 35.060814 5.534586 0.657229 1.618810
126 1 7.434535 41.729534 10.179186 -16.544855 1.512316 -1.277359
127 1 6.956628 37.408489 33.789417 1.252899 1.213606 0.220160
128 1 11.334070 7.508023 37.898720 3.669334 1.295441 -1.480850
129 1 18.098372 10.146047 24.104534 -3.402925 -1.197969 -2.175656
130 1 28.296394 9.755581 46.826859 -2.341917 2.118987 -1.832150
131 1 38.395348 38.949768 43.531281 -2.933078 -0.448136 -4.183472
132 1 36.108257 48.169533 8.515116 1.205064 6.685298 0.845151
133 1 38.691860 8.075582 9.443372 5.842669 1.302689 -0.953903
134 1 34.151512 22.525116 14.548256 2.888066 -1.772026 -3.717367
135 1 45.553604 14.047442 42.349072 2.466444 0.674549 1.267133
136 1 26.729534 15.936860 15.170348 -5.048048 -4.752303 1.883251
137 1 47.688374 16.941860 26.671513 -20.144728 -13.310717 15.712032
138 1 41.698139 11.885581 33.145466 4.655647 8.188459 3.773691
139 1 9.856977 10.671163 33.249649 1.463610 -5.575266 -4.702848
140 1 8.547093 29.008371 9.107326 -4.459795 1.311589 1.624076
141 1 43.046627 1.231759 27.394651 -7.788952 -1.215330 -1.442351
142 1 2.711628 22.455582 48.684868 3.096550 -0.470649 -1.497345
143 1 18.560930 2.814651 49.645931 -3.377359 -1.982013 -6.406398
144 1 34.299301 35.254070 10.999187 0.022613 -6.894737 9.817203
145 1 18.692093 15.289070 39.868370 1.845208 0.607942 0.043442
146 1 48.867558 0.002326 41.848022 -0.651579 -3.290005 -3.995736
147 1 39.578026 4.555000 40.274765 -3.394618 -3.490556 -6.432160
148 1 29.324999 39.047558 47.553139 -1.761215 7.828536 -3.105529
149 1 28.379536 4.579651 7.144884 -0.236082 2.141910 -0.736474
150 1 20.851976 28.367092 1.112209 -1.279828 2.123726 -0.608007
151 1 42.439301 6.744419 20.313139 1.129671 1.210127 -0.928813
152 1 29.722326 25.343836 15.979302 -3.836608 9.945522 9.747816
153 1 47.431744 23.253256 8.843023 0.212506 -1.906327 1.756212
154 1 22.418837 13.677791 18.971977 2.203476 7.707459 -4.749519
155 1 0.875348 25.547674 40.836395 -8.196269 -0.078316 13.308266
156 1 49.628605 10.607907 6.404070 10.734793 -2.281129 -1.322172
157 1 25.735233 38.493370 23.390581 -0.723812 -6.080556 0.297491
158 1 38.343605 31.827209 31.633371 -1.301334 2.024396 1.957778
159 1 22.338837 24.552094 10.962907 -1.722296 -5.573674 0.808370
160 1 20.152327 16.429186 2.454535 -0.601515 1.067620 9.153809
161 1 36.970581 13.363488 12.908954 3.910175 -9.596522 -0.579928
162 1 34.781860 13.898024 4.277907 -2.019955 1.666911 -6.340258
163 1 24.047558 2.907791 34.121628 3.779680 -4.604994 6.827250
164 1 38.920235 23.188372 16.175814 1.903300 5.525440 2.408943
165 1 16.680931 46.104885 38.882908 4.091788 -6.489599 -1.372107
166 1 47.564999 47.011978 27.799419 3.834969 0.604274 -0.486337
167 1 10.284419 39.380234 2.892326 1.944737 -4.105562 -0.794462
168 1 42.488140 7.922791 27.605116 5.172876 3.338001 -0.667564
169 1 43.607792 46.149536 35.414417 -0.038456 -3.067852 3.993452
170 1 5.732907 1.511874 15.240814 -0.830779 1.622206 -0.462114
171 1 13.104419 46.411976 23.062792 -9.922244 3.758911 -1.574603
172 1 5.275116 18.147326 41.056862 5.460825 -0.498665 -4.678772
173 1 6.678140 36.677559 0.919652 1.738401 -2.760361 0.089762
174 1 15.545000 13.592325 45.650116 -0.551863 0.327785 12.793796
175 1 14.594186 7.320814 42.626163 0.951197 -0.678510 3.173575
176 1 35.461861 49.597660 28.894070 3.156065 11.338098 3.656491
177 1 44.698025 17.712093 47.546860 1.603717 -3.070160 -8.422193
178 1 17.507093 34.968838 11.044187 -8.955914 7.652636 19.947460
179 1 35.332211 26.676861 23.847094 4.298655 2.560311 -0.850763
180 1 12.810232 18.297092 28.802906 5.542154 12.399878 -1.514782
181 1 30.527908 32.770699 9.307558 -6.184439 -7.911842 -2.389378
182 1 9.388488 32.228489 1.509667 -2.751759 2.824273 -0.694778
183 1 48.066280 2.756395 35.695118 -2.654509 -2.055156 -1.985272
184 1 47.229420 7.935465 25.557791 -1.062418 -6.234713 -2.275956
185 1 16.371628 3.357442 24.833954 -2.099710 1.787707 7.588380
186 1 28.261045 10.453605 22.160931 5.414057 0.559218 0.276716
187 1 18.440117 2.730349 32.605350 7.532743 0.702966 -3.196875
188 1 37.619419 18.543604 19.112675 0.819207 11.056558 -0.676088
189 1 29.343372 6.877791 18.780464 0.232011 3.745516 -0.482555
190 1 49.715816 0.366046 16.358372 1.886933 1.761519 0.560497
191 1 41.454304 47.504070 2.822108 -23.368969 -3.710285 1.314563
192 1 20.766047 36.217907 0.850479 -0.852736 -3.117377 -1.528610
193 1 20.757559 24.354652 3.232907 -1.604680 -1.079826 4.821631
194 1 23.710697 41.493603 18.707674 4.233785 9.753985 -1.889471
195 1 42.925579 42.363487 5.476977 0.637105 3.498973 -0.282878
196 1 11.569535 17.115465 0.410711 -2.120163 6.210227 2.100582
197 1 38.370350 40.972908 2.461046 -6.688013 10.780079 9.749725
198 1 42.125351 3.198721 10.769419 2.976929 3.348243 1.386851
199 1 5.640698 6.159070 27.886164 -1.063249 5.393424 -1.235648
200 1 11.802325 33.300232 18.582674 -3.821239 -2.423517 -1.402668
201 1 35.721512 42.676861 12.551046 -1.096667 -2.015658 -0.450229
202 1 8.690814 13.631512 23.448721 -2.553566 3.600380 -4.756112
203 1 41.175697 11.800581 11.278255 1.922642 -2.714907 -0.822970
204 1 10.705581 33.842674 9.475465 0.466877 4.832907 0.358190
205 1 39.441746 31.447906 13.311511 1.480631 1.816908 -2.981055
206 1 19.755232 11.535465 35.003139 -1.152735 -1.088120 0.168210
207 1 49.372906 41.791046 39.515465 1.332181 -4.791326 1.413811
208 1 44.414764 1.212558 43.660580 3.742718 -1.971507 -5.369214
209 1 23.954418 37.769188 6.339418 -4.792940 -0.863653 -11.329389
210 1 44.115582 30.135582 8.888140 -3.814008 -3.481368 1.544177
211 1 24.375814 41.259884 13.196162 3.930903 0.501686 4.059597
212 1 39.214302 27.893373 15.054768 -5.095731 0.299660 -2.239586
213 1 23.777790 37.440697 34.380001 -3.363818 0.422994 -0.788546
214 1 44.014885 39.833488 11.966628 -3.442271 1.083701 4.568580
215 1 23.120117 9.624419 6.231744 -4.586457 -0.800169 -0.290338
216 1 26.566977 45.946976 35.001976 1.998804 0.868012 2.417325
217 1 27.063023 36.151512 9.011861 4.479442 -2.540719 3.558522
218 1 3.246395 19.916279 26.886164 17.635984 13.653627 -13.851911
219 1 44.700813 28.899302 19.061628 2.806381 2.743423 -1.602439
220 1 0.926977 0.980000 30.446163 0.534042 -4.248309 0.426648
221 1 5.382558 35.231510 10.931745 -2.217839 1.367512 7.509953
222 1 44.994999 45.106277 22.041861 17.117708 9.064985 -5.145432
223 1 49.003025 15.798838 17.423372 -1.417876 -1.916802 -2.124995
224 1 16.361860 7.125465 48.662209 0.499599 -0.057207 1.282960
225 1 39.484882 13.614186 43.208721 -4.986451 0.577340 0.704552
226 1 24.227093 2.296977 45.225582 -3.598696 4.565689 -0.072102
227 1 18.078604 25.289883 29.535465 2.268650 -2.447759 1.182123
228 1 1.055247 21.292791 20.153372 4.420110 -4.814448 0.019220
229 1 7.958953 1.306977 9.230232 -1.256607 -3.793453 2.521281
230 1 2.126163 4.780581 46.305698 -0.928400 5.783591 5.363654
231 1 44.825699 2.965016 21.621046 7.203819 1.383375 2.529723
232 1 45.272209 5.151977 31.805931 -8.854114 -1.199605 -3.919608
233 1 33.674767 19.731163 46.310001 3.273718 -1.170836 7.558865
234 1 22.006046 30.755697 39.917210 -1.373982 -3.406041 1.588274
235 1 2.139433 6.896512 16.847906 1.615362 -1.906737 0.412740
236 1 6.192326 11.277791 36.809883 -6.406314 3.919549 6.976965
237 1 32.596512 32.303604 41.123604 -3.993986 -1.376394 -3.034000
238 1 46.174068 6.152093 44.973953 -6.944448 -1.892895 2.506771
239 1 9.738488 24.855814 35.801514 -5.157486 -2.917287 1.249205
240 1 11.345117 45.077789 34.868374 0.759998 1.462165 0.169951
241 1 25.607906 29.282093 13.296861 0.175805 1.408506 0.872746
242 1 23.319534 41.168488 26.242907 -1.533497 3.277494 2.220868
243 1 32.074417 39.038258 38.739769 2.083026 -3.606581 3.560245
244 1 31.278255 1.676861 25.322792 -0.930419 5.799401 -1.532561
245 1 42.115349 43.360699 25.680580 -12.985388 -11.489064 8.005777
246 1 26.606628 24.145117 1.638605 0.458492 -6.427235 -2.616801
247 1 11.659070 39.235348 33.322094 0.049669 -0.452834 -2.787834
248 1 9.888140 2.477805 25.986162 -0.990248 -3.155423 -2.808937
249 1 34.025696 7.127675 30.433023 2.178584 -1.766127 8.768309
250 1 4.213605 28.687325 3.000232 2.040551 0.443042 0.594653
251 1 2.083721 44.807327 3.816046 -15.991882 9.502121 9.597888
252 1 28.096628 46.677208 11.371047 6.709648 0.929111 6.197973
253 1 3.428023 35.564651 16.854883 1.992911 -1.008014 -1.298663
254 1 26.493023 28.795465 29.217907 -7.251512 1.971181 -2.637773
255 1 42.888721 23.998955 11.132325 0.385247 0.027881 -2.068965
256 1 6.445349 42.802792 23.625929 -0.999742 2.715263 1.865069
257 1 7.228837 48.608124 40.241394 1.574384 -1.161816 -0.943664
258 1 26.257906 16.518372 10.344069 -5.462582 4.303362 -0.527379
259 1 29.258722 26.452675 25.562557 -0.143585 5.989937 -8.026282
260 1 12.446395 12.555465 28.509418 -5.433494 -10.486091 6.047221
261 1 33.695698 14.241047 48.732792 -0.180622 1.342385 0.530676
262 1 34.956280 31.663954 34.953022 -2.271049 1.067018 0.937623
263 1 45.008606 15.396976 14.455814 -1.121617 -3.441220 -2.761290
264 1 18.747908 19.535233 41.870697 -1.879648 2.050506 -0.819421
265 1 20.846977 49.406963 37.620232 -1.626732 -0.251446 -2.044544
266 1 13.079884 29.934303 29.106977 -6.806044 3.961528 3.088245
267 1 22.408953 4.720116 6.932674 -5.544699 4.764292 -4.252379
268 1 21.868721 43.631279 9.187442 -7.143285 0.025453 -3.019486
269 1 9.143373 20.661280 37.893723 0.790013 -6.620100 2.339928
270 1 10.354883 34.483723 35.374420 -1.704332 -1.217506 -4.563051
271 1 6.271976 17.175116 1.981395 -5.411433 -0.067129 4.311059
272 1 29.965466 25.812443 44.240116 -2.847082 3.799789 -2.151759
273 1 15.173372 48.914188 8.093023 2.184626 -4.342942 -4.935028
274 1 18.442209 34.528488 27.516977 6.472244 4.070913 -5.294453
275 1 46.158836 29.457558 26.004536 3.162680 0.163844 2.017793
276 1 2.381860 37.463139 33.516163 7.059260 -0.637445 1.189844
277 1 37.514885 5.898605 1.976977 2.208138 -1.268023 0.024564
278 1 45.469883 6.997210 2.253968 -4.541943 -2.971961 -1.093901
279 1 14.979883 41.437325 18.526047 1.084350 -2.380942 1.119357
280 1 10.886163 0.583140 20.921860 -3.332206 6.515575 -4.517130
281 1 24.319769 22.198605 15.789303 -2.001341 -3.664978 0.743718
282 1 34.265583 38.006046 49.654522 3.825943 -0.893719 4.752518
283 1 39.868603 45.313370 29.996279 8.614042 -1.085329 8.727379
284 1 0.029667 4.828605 6.852674 2.742984 -3.055053 -0.342379
285 1 12.238837 5.577093 4.586860 9.282784 1.708430 -2.457050
286 1 12.891512 21.100466 41.381046 -6.952497 -10.808325 5.329360
287 1 26.912094 41.682209 38.293606 -0.306251 7.346842 4.532861
288 1 20.251978 48.491627 12.885000 2.416367 -2.370236 0.933686
289 1 34.675579 28.253838 5.838023 -0.647031 -0.545141 3.503533
290 1 21.053604 14.603024 9.863023 6.014050 -0.457853 -2.413332
291 1 48.671860 46.374649 9.142907 3.198454 -3.135281 -1.813845
292 1 28.901163 34.243023 37.717789 4.754384 -6.865474 2.153837
293 1 14.563604 20.347094 5.319884 3.062634 -4.003857 -1.191852
294 1 10.656860 35.915699 26.369768 -0.294441 3.109582 5.308365
295 1 29.656744 20.699419 10.872210 2.688948 6.275671 -1.486263
296 1 12.490582 26.424650 4.905814 -1.442474 3.412891 -1.560211
297 1 34.158489 4.478953 9.702675 3.390155 0.707173 1.753418
298 1 28.378372 34.817673 48.568939 11.059093 -11.471761 5.477024
299 1 5.400930 49.621380 23.426512 0.633538 0.313762 -0.861742
300 1 33.328720 41.573605 7.796163 1.232447 17.242748 -13.350074
301 1 21.391047 43.101513 4.180697 -0.975418 -0.351548 2.315012
302 1 24.311279 47.855583 40.893253 3.142982 3.322318 0.974380
303 1 0.099549 12.903837 37.399071 -2.120290 7.595754 2.958473
304 1 41.534302 34.014652 40.553024 3.126353 -3.806150 3.101666
305 1 16.048140 38.314419 6.828139 -1.565649 -0.049439 -2.503615
306 1 14.541047 21.400930 35.165001 1.863795 -2.917881 -2.012498
307 1 43.260815 21.204302 6.403140 -1.586225 -4.589208 -0.477362
308 1 44.199535 11.054070 18.151861 -4.047828 -1.147511 4.388501
309 1 29.626396 30.079767 22.640697 -1.107087 -0.722844 -2.402649
310 1 42.296978 47.617443 10.445814 -3.292434 1.860523 3.697916
311 1 48.169067 26.826977 13.054535 -3.847298 6.010794 0.463672
312 1 35.789536 24.680000 8.658488 0.971703 -1.082151 -0.852514
313 1 33.376629 13.495000 8.847442 -2.962286 -4.023039 4.514092
314 1 14.508605 39.825233 27.106512 -9.336326 2.723277 0.217392
315 1 2.015116 4.848954 11.283721 2.181155 3.850065 5.852758
316 1 7.115116 3.002326 31.199303 0.639456 -6.208052 1.737676
317 1 11.408605 3.400349 15.134186 -3.513603 -0.875495 4.520415
318 1 3.890930 27.616978 8.800349 5.226056 -0.308071 -4.096004
319 1 32.613022 15.729419 25.225117 -2.962097 -4.850563 3.979316
320 1 12.299418 15.250349 36.228256 0.280958 2.531922 0.311578
321 1 27.465582 11.465697 33.287441 -8.638021 15.873339 -4.760095
322 1 11.627558 11.458954 48.022793 0.811041 -3.377462 2.220339
323 1 21.366394 33.421745 33.567093 -5.718404 -1.070300 3.025801
324 1 5.203256 11.010233 48.369770 -0.567376 3.928788 5.288333
325 1 39.301861 3.957325 30.735815 -7.426362 -5.397373 0.311502
326 1 26.879766 8.230698 1.724535 6.339794 -3.749976 2.066912
327 1 32.823139 15.532675 16.934767 -1.912950 1.217586 -1.773135
328 1 12.422442 24.073023 28.250698 -2.043247 -4.557318 4.892509
329 1 38.424301 4.480116 24.678255 12.376136 -8.931229 -1.916840
330 1 44.231976 22.148024 42.660233 -1.714054 -0.276829 2.895061
331 1 13.430814 33.173141 47.774654 4.231555 -0.995156 5.492498
332 1 38.550232 35.642326 26.821047 0.418662 -1.340758 -1.127075
333 1 35.418953 39.128490 25.435698 -3.555966 -2.891217 -0.600704
334 1 3.042922 13.941745 42.969883 -1.621850 11.745885 -5.014472
335 1 27.216047 22.064419 37.759884 -5.176557 2.483095 -0.783491
336 1 16.873953 23.721046 18.940697 -1.816907 -6.181261 -1.623302
337 1 41.140347 19.048838 16.147326 0.042909 -1.088128 4.145920
338 1 49.516846 44.443489 25.294767 2.075039 0.545192 -4.010774
339 1 35.631046 46.540230 40.837440 11.540459 -4.280442 6.234622
340 1 2.263256 45.945698 19.327791 1.440492 0.298971 -0.332768
341 1 27.432674 47.941162 6.445698 -2.351381 -3.584113 -2.283412
342 1 33.482327 11.017558 20.641279 1.428183 10.987438 -1.776845
343 1 46.410114 26.728489 35.569420 -4.238876 -0.930570 -2.898862
344 1 27.858837 16.512093 32.563488 -4.971622 6.116005 -2.835624
345 1 38.212093 15.538023 49.234535 -6.153495 2.106645 -4.347548
346 1 29.274534 2.369302 34.813255 3.445015 -2.748914 5.251049
347 1 49.659302 39.146744 5.711628 -1.181853 -2.008826 2.136542
348 1 29.860580 8.798140 35.829884 3.393364 -13.286494 12.475764
349 1 33.384186 33.307674 46.835232 -0.145216 -0.158648 1.076023
350 1 16.844650 12.736047 17.092907 0.601051 0.362417 3.909103
351 1 45.600929 43.869419 1.513271 14.466867 -7.019441 -5.561225
352 1 42.491047 37.378838 30.222210 -3.914367 -2.279094 0.809227
353 1 7.113605 21.257908 31.016628 2.679136 -1.509993 3.088151
354 1 11.073721 1.206644 2.459186 -0.091790 0.057929 1.399056
355 1 24.685232 15.020698 0.088618 -3.216156 3.981476 1.858076
356 1 47.484650 7.935233 12.413488 4.164126 -3.136219 6.982233
357 1 4.273489 43.967327 43.823257 -0.106049 1.435335 -3.641632
358 1 49.127907 17.404884 32.791397 -6.060488 3.345944 4.045363
359 1 2.305116 20.398489 5.680582 -2.099628 4.571472 -3.665965
360 1 34.560814 21.994768 2.058023 -3.848493 -0.637945 1.906686
361 1 16.598139 4.907791 7.880930 0.405109 7.102421 5.996437
362 1 27.180929 2.605465 15.178837 -6.185405 -0.000432 3.918195
363 1 24.395466 48.164303 25.756512 2.933193 -0.739344 -5.621846
364 1 34.707211 33.095230 2.822791 4.937783 1.686305 -4.147605
365 1 8.948605 9.332442 19.014883 4.653779 1.423203 -5.473804
366 1 34.747791 25.366280 40.754768 0.892620 2.910013 -4.070632
367 1 1.408154 30.457209 14.843720 5.658470 -1.002555 4.680770
368 1 6.513488 27.762325 31.161745 -1.400723 3.678723 0.699795
369 1 16.527557 34.637791 19.187906 -5.688030 -2.397248 1.631272
370 1 9.620465 17.144535 42.163952 5.949944 -2.324884 2.812559
371 1 23.342093 32.438953 27.170465 -0.758148 -0.312370 -1.281799
372 1 21.095930 18.573954 13.183953 1.111963 5.318048 -0.154996
373 1 7.937209 5.511628 49.741512 2.639717 -1.016100 -0.681554
374 1 0.779535 46.028721 38.610813 4.123647 -2.151490 -5.733449
375 1 19.251976 45.105347 0.084666 2.673622 2.726552 -3.771707
376 1 5.388721 41.530815 28.353024 -5.975369 -2.388144 -1.840202
377 1 5.396744 34.028137 28.526976 -3.449439 3.103519 5.829106
378 1 8.989070 26.411047 25.681047 0.560975 1.599334 4.034429
379 1 15.796744 17.594419 18.677094 2.758795 -11.231712 4.893428
380 1 41.176861 10.279767 47.718956 -0.661698 5.265659 -1.732682
381 1 47.503021 0.457093 5.115814 6.895313 9.344877 -0.169828
382 1 36.924534 45.762905 17.868139 0.586598 -2.053107 2.140189
383 1 36.886978 36.511978 36.991627 -1.305337 1.922284 -1.873241
384 1 48.432442 11.794884 47.211044 -7.753608 12.619576 -4.492892
385 1 13.914302 30.552557 2.166178 -4.406641 2.802397 -4.345958
386 1 2.470349 24.138372 16.127790 -3.075730 4.565547 -6.019806
387 1 19.020582 44.099998 26.670698 10.016552 -12.823054 1.054535
388 1 49.720234 40.556396 11.101628 1.963449 -6.123007 -10.521628
389 1 46.550579 36.102676 8.480117 2.355501 1.247388 -4.795267
390 1 33.779533 18.189070 40.747208 -0.200339 -3.866211 -17.099894
391 1 9.007093 45.046162 27.616978 -1.284866 -5.877276 -4.232920
392 1 40.691277 35.167324 10.579651 10.259344 -8.202888 8.450500
393 1 15.381512 39.892559 0.841643 -2.518224 -1.832646 -0.026505
394 1 31.854885 13.547791 41.847790 4.154628 -3.710646 5.530489
395 1 19.439419 0.498154 23.063141 6.051180 0.022417 -5.639221
396 1 23.279419 35.495815 16.968605 2.113290 -2.214901 1.862167
397 1 39.276394 22.655233 1.914783 -3.311007 -6.467110 -1.338446
398 1 3.502674 39.153488 40.041859 -6.175939 -2.090482 -0.286153
399 1 44.400349 48.024071 48.664986 5.792803 -1.405382 5.478168
400 1 36.612442 6.551512 15.529534 -2.460093 -0.916203 4.038801
401 1 45.136860 30.603952 38.961861 -0.639447 -0.825948 -5.775745
402 1 38.466045 7.563256 35.708370 2.616713 -4.313006 1.550578
403 1 15.468372 21.064651 47.567326 -6.230110 -2.771443 5.938769
404 1 9.747790 27.151628 19.560581 -0.076672 2.371846 -3.876997
405 1 31.929070 42.462677 1.771875 0.162420 4.077361 1.208018
406 1 39.208138 31.589535 46.979885 -1.049700 3.294797 -2.523139
407 1 27.639767 16.871395 45.001511 11.454868 -9.277099 -2.498924
408 1 0.068271 20.414885 44.659653 -5.200487 0.788009 7.154380
409 1 32.476974 37.320347 17.092907 -4.894808 3.611355 -0.669805
410 1 0.735713 31.580000 32.001511 5.392310 2.109253 0.925354
411 1 2.085349 14.960465 3.484302 0.990688 -2.973414 -0.273246
412 1 42.938023 31.110582 1.969884 -5.064269 20.371845 -5.423949
413 1 19.986628 49.105000 29.416395 -9.371514 5.504747 2.481003
414 1 11.800697 38.909302 19.522558 -2.119868 3.205532 -0.798001
415 1 48.855232 30.199419 8.317675 -5.052287 11.562011 -0.732476
416 1 5.451860 4.919767 36.251278 1.092266 2.841077 1.344880
417 1 8.979768 42.430580 46.732674 0.993940 3.951705 -3.093678
418 1 37.990814 23.033953 43.443371 4.760640 -4.643450 2.544713
419 1 16.643255 48.558952 46.920467 1.386770 5.417977 11.876184
420 1 7.237907 16.197210 29.339186 1.949907 1.707191 -4.665997
421 1 27.853373 5.551628 31.004534 2.449231 -7.771721 -4.271041
422 1 16.783371 43.607090 13.203837 2.581952 4.822817 -0.161453
423 1 18.682674 4.041163 20.109884 0.707306 -1.669060 0.793399
424 1 27.092907 37.129189 42.141163 2.641668 0.656891 -6.844357
425 1 34.988953 16.349070 32.677673 -1.848979 -1.030424 0.239825
426 1 46.710117 7.114186 36.933605 3.574923 -12.769802 0.537551
427 1 43.847557 36.145115 1.708851 6.426472 -11.786999 -6.117912
428 1 28.043837 35.612789 20.113256 1.949660 -7.158851 0.297521
429 1 22.743023 20.955814 36.382210 3.083551 1.461040 3.118880
430 1 46.045696 33.367558 47.856281 -2.641068 0.321505 1.301108
431 1 5.804186 29.915930 41.611279 -1.787017 5.264838 2.378130
432 1 7.918139 9.527674 43.458721 0.329999 -12.863957 -1.137317
433 1 5.058488 23.971861 21.244652 2.671453 -4.699092 4.462002
434 1 40.842674 28.449303 33.264301 -2.138528 -2.345951 2.526575
435 1 27.706047 35.671978 32.513256 3.587275 0.032749 -5.006098
436 1 12.602209 48.219868 12.840698 -4.576871 -2.480570 -2.040987
437 1 45.005348 9.502907 7.357791 -6.052298 6.430727 -2.902256
438 1 43.547092 32.478836 29.717442 5.167132 -1.250671 -2.490484
439 1 1.586163 9.053256 41.924534 -3.474785 -2.369411 -2.959203
440 1 2.673140 7.305697 31.865931 0.190866 -1.364353 0.163014
441 1 26.643721 0.962921 0.719419 -8.039849 2.752010 -0.531947
442 1 37.620697 12.240349 18.273024 6.097394 -8.037483 -0.609352
443 1 19.725815 28.948605 22.737093 1.872328 2.314808 2.960866
444 1 14.629302 12.928720 32.947906 -1.145919 3.064914 8.243306
445 1 20.004417 38.290115 38.813141 0.197299 2.119634 -3.316941
446 1 47.620449 33.888374 13.795582 0.785252 -4.268965 3.159634
447 1 40.492092 18.880116 43.495815 -0.353426 2.098658 1.177156
448 1 44.559883 15.609534 21.944069 -1.970506 2.010268 -0.332411
449 1 41.440582 34.114651 17.796164 -0.067357 -3.051846 -0.185308
450 1 43.679768 47.381977 18.193953 -4.720683 -5.613551 -3.875800
451 1 32.236164 29.566280 15.366047 3.059937 -1.428581 1.209170
452 1 47.180466 16.148954 10.254884 -0.857051 2.561726 1.976737
453 1 48.107327 38.059303 49.045116 -5.960032 -3.000644 -1.311121
454 1 20.253023 9.156628 14.099070 1.139213 -2.355220 -0.565262
455 1 14.472325 31.332092 35.916512 3.394759 -2.556827 -1.175095
456 1 4.095814 25.723022 38.044769 -1.668498 3.476062 -8.520236
457 1 27.375814 19.511395 18.722559 -8.473644 3.685982 -0.595268
458 1 5.029186 37.727325 22.297907 0.340585 -1.973879 1.264767
459 1 15.373256 8.207907 15.100698 5.131959 5.322816 -1.721537
460 1 23.462326 33.380234 45.461514 -13.697284 0.710748 -1.020584
461 1 44.398254 36.948952 24.068720 0.064058 9.507099 17.612778
462 1 34.410351 1.903735 34.846512 -1.912043 0.773028 -2.008914
463 1 5.007326 11.718023 6.070232 -7.658918 -2.562453 -1.677311
464 1 35.158955 18.845930 10.430697 0.271939 5.646014 2.380400
465 1 29.562094 47.840000 18.641512 -4.876930 3.259330 3.898279
466 1 45.448139 23.517443 16.749302 5.855171 -10.888780 4.031174
467 1 26.891745 11.565116 14.081511 2.200033 -6.755939 0.971342