cg_poly

5 atom types
3 bond types

406 atoms
9 bonds

0.000000 69.873901 xlo xhi
0.000000 69.873901 ylo yhi
0.000000 69.873901 zlo zhi

Masses

1 344.000000 # SOL
2 29.000000 # B4
3 104.000000 # B3
4 105.000000 # B1
5 28.000000 # B2

Atoms

1 1 4  34.576096 37.453621 47.241333
2 1 5  33.781788 35.477497 43.847858
3 1 3  34.820671 34.175674 39.507404
4 1 5  36.916073 33.369999 42.442142
5 1 3  37.402115 32.170864 46.079521
6 2 5  39.723572 29.930714 45.165714
7 2 3  39.306728 25.248365 44.580288
8 2 5  36.931427 27.370001 46.814999
9 2 3  33.866924 27.115768 47.798943
10 2 2  34.198277 23.650000 48.013447
11 3 1  25.133226 20.012007 52.458923
12 3 1  15.353778 0.089657 58.648357
13 3 1  67.512978 17.197500 26.442181
14 3 1  6.099723 18.446163 59.350147
15 3 1  21.268721 63.860424 36.795174
16 4 1  50.862179 48.825294 66.263611
17 4 1  39.450321 15.738886 62.059799
18 4 1  56.880001 47.082676 55.983707
19 4 1  48.740715 28.176889 50.731644
20 4 1  13.715072 61.174377 52.962093
21 5 1  45.139404 26.105595 47.699757
22 5 1  6.864441 10.683763 22.207558
23 5 1  54.618607 31.127470 48.534275
24 5 1  63.832928 41.942253 61.421833
25 5 1  55.171368 45.119854 17.703751
26 6 1  14.702180 2.040855 4.826915
27 6 1  1.511972 63.996586 29.685843
28 6 1  26.171366 34.933548 32.680923
29 6 1  36.290668 38.412472 50.765469
30 6 1  7.610856 45.859592 62.989086
31 7 1  26.942238 60.991249 24.614389
32 7 1  60.150963 20.213459 11.539851
33 7 1  58.028854 25.522326 12.552325
34 7 1  59.764465 31.749912 66.012619
35 7 1  56.682472 38.013313 40.200756
36 8 1  25.700291 42.869873 35.192356
37 8 1  38.787617 36.216801 45.626312
38 8 1  63.368824 17.812820 34.309853
39 8 1  11.209124 27.051163 56.992588
40 8 1  3.254228 3.559664 35.994068
41 9 1  21.432617 48.554798 50.090889
42 9 1  2.345711 60.432930 48.213737
43 9 1  55.008068 31.645884 25.589012
44 9 1  25.568014 29.443850 3.198166
45 9 1  37.549011 14.913982 38.516338
46 10 1  31.190203 37.980057 67.076912
47 10 1  56.813946 54.497471 59.490871
48 10 1  1.161945 18.613094 14.042180
49 10 1  50.280018 2.269054 56.861584
50 10 1  53.485626 14.746728 49.075500
51 11 1  65.644234 34.458138 62.772629
52 11 1  53.063225 54.809475 26.047123
53 11 1  28.098085 34.128895 27.912617
54 11 1  3.596653 33.295845 36.093605
55 11 1  48.400394 1.404955 46.541134
56 12 1  11.349387 2.317905 61.746254
57 12 1  52.535408 19.760471 22.524914
58 12 1  20.744040 30.373402 10.554115
59 12 1  27.543720 3.533123 21.428532
60 12 1  51.857471 43.974129 37.627884
61 13 1  63.529274 37.253574 49.745605
62 13 1  17.216129 53.269058 34.861252
63 13 1  21.594797 8.298485 42.698402
64 13 1  39.665379 32.426830 66.603256
65 13 1  43.428738 63.000248 3.243863
66 14 1  23.575901 40.937977 43.983051
67 14 1  57.864464 2.950212 7.618362
68 14 1  42.074738 43.336830 53.384884
69 14 1  64.864067 40.902298 12.172674
70 14 1  3.693515 61.280750 50.626278
71 15 1  66.631531 63.092606 46.169594
72 15 1  47.464535 24.999432 10.630724
73 15 1  54.211975 14.430523 35.018024
74 15 1  25.404058 67.715500 30.129496
75 15 1  25.985464 14.191204 24.003202
76 16 1  2.896799 64.718132 42.086514
77 16 1  4.006043 35.671452 26.969227
78 16 1  36.394970 9.864738 22.272930
79 16 1  32.747429 48.027645 30.581453
80 16 1  48.845463 57.161179 67.935844
81 17 1  56.582878 26.370464 10.931205
82 17 1  38.433952 42.752701 11.122513
83 17 1  54.892097 35.827267 24.972982
84 17 1  58.029991 49.157818 54.520626
85 17 1  68.418007 7.769286 37.577240
86 18 1  58.000259 69.868721 32.154430
87 18 1  35.387909 39.335407 6.528182
88 18 1  25.643866 51.578510 58.683098
89 18 1  28.180786 55.471573 65.395355
90 18 1  54.604565 21.830755 55.329697
91 19 1  59.694927 59.002808 53.029079
92 19 1  8.181261 43.480465 34.244518
93 19 1  18.010727 50.671707 5.941932
94 19 1  40.063080 10.042281 68.781105
95 19 1  52.833256 1.981712 17.972645
96 20 1  68.937965 65.220169 47.115974
97 20 1  28.318489 17.622471 47.844650
98 20 1  26.958851 66.121750 10.503095
99 20 1  51.390976 62.997196 61.360161
100 20 1  18.787384 50.501064 47.704842
101 21 1  27.620174 43.376991 12.269183
102 21 1  52.497150 64.959564 24.271624
103 21 1  6.234264 58.975212 19.535698
104 21 1  66.717979 19.801846 48.097355
105 21 1  63.558445 68.894768 28.357500
106 22 1  50.222923 31.021482 68.992645
107 22 1  5.449556 32.693489 11.500915
108 22 1  64.489738 40.969593 32.177151
109 22 1  7.158298 58.869865 67.012764
110 22 1  22.527122 10.697759 4.497455
111 23 1  3.324245 30.863285 23.054897
112 23 1  35.154011 67.025703 17.024420
113 23 1  24.621954 17.368284 12.650507
114 23 1  3.023951 28.423285 25.948780
115 23 1  16.173647 40.553051 10.344099
116 24 1  21.517397 64.339249 66.436996
117 24 1  14.362368 59.959084 15.284157
118 24 1  43.990139 39.996162 65.855247
119 24 1  46.711933 65.423882 45.714970
120 24 1  69.098007 28.601025 63.812725
121 25 1  7.888239 57.435524 65.333038
122 25 1  51.940872 60.102589 6.374199
123 25 1  34.102993 22.483124 7.920346
124 25 1  59.989014 26.001192 48.378864
125 25 1  56.122227 48.144318 45.239216
126 26 1  44.134941 66.313744 39.362675
127 26 1  49.090088 21.198990 38.013489
128 26 1  14.797164 35.425030 40.479797
129 26 1  12.599298 58.649200 25.357733
130 26 1  26.238924 34.418865 26.283257
131 27 1  42.934650 12.712093 4.422104
132 27 1  31.266018 0.908805 38.367760
133 27 1  9.683095 51.513512 57.720787
134 27 1  22.075058 5.452979 63.867386
135 27 1  25.373606 37.446510 51.925568
136 28 1  48.587036 40.520523 25.747355
137 28 1  1.266844 69.478752 9.969723
138 28 1  50.402992 7.569054 46.331833
139 28 1  5.046117 16.512194 6.544693
140 28 1  7.749198 63.041092 41.801716
141 29 1  33.928402 41.872181 29.040813
142 29 1  30.464100 20.268604 49.529667
143 29 1  19.378473 68.173943 54.370522
144 29 1  44.634796 48.335423 6.779519
145 29 1  64.283852 59.249958 21.542616
146 30 1  40.777412 64.233856 30.546947
147 30 1  25.617239 24.856749 44.767616
148 30 1  42.627327 54.194683 64.255280
149 30 1  41.281017 61.315704 61.359085
150 30 1  65.664825 57.620277 54.826687
151 31 1  10.975639 64.192978 9.956844
152 31 1  56.417431 61.048317 19.762705
153 31 1  52.720612 52.922153 64.022385
154 31 1  37.168839 25.923647 8.299635
155 31 1  19.789709 21.369143 16.886379
156 32 1  65.591934 9.118908 22.733633
157 32 1  10.187513 32.759007 2.677613
158 32 1  68.275642 45.086674 6.580884
159 32 1  42.440395 4.972164 9.405129
160 32 1  47.405525 39.210960 32.797920
161 33 1  5.789692 39.248196 28.122267
162 33 1  15.408984 48.139851 52.203068
163 33 1  18.423605 40.346657 45.201149
164 33 1  48.779091 46.044506 27.859810
165 33 1  53.060436 52.974907 38.127300
166 34 1  46.264214 10.551374 25.040855
167 34 1  46.408634 51.437393 17.421658
168 34 1  53.093590 45.429417 66.334908
169 34 1  20.777180 37.794449 44.027843
170 34 1  21.200930 42.037918 64.732536
171 35 1  46.990322 14.755552 23.472839
172 35 1  17.788315 51.787632 45.171074
173 35 1  23.703430 45.775639 53.591423
174 35 1  32.241512 56.966221 48.966877
175 35 1  14.215158 27.656658 59.489883
176 36 1  36.760960 58.479637 3.423200
177 36 1  54.372459 0.040856 1.299615
178 36 1  29.169739 7.574103 1.558153
179 36 1  61.232529 26.558924 64.137810
180 36 1  17.670261 26.794128 38.648865
181 37 1  37.531502 4.769282 4.670763
182 37 1  67.362762 16.585915 25.489456
183 37 1  39.485638 50.743633 13.359777
184 37 1  45.032410 48.825523 67.809738
185 37 1  40.626656 41.012993 17.564112
186 38 1  2.502602 4.635303 39.438690
187 38 1  38.894825 39.505116 63.526863
188 38 1  4.743050 69.772644 35.958973
189 38 1  16.610086 39.265606 68.233025
190 38 1  13.154577 46.652531 57.659737
191 39 1  43.215176 15.424979 66.250237
192 39 1  22.804228 33.927471 47.628838
193 39 1  64.860992 64.526047 7.592526
194 39 1  21.302267 0.192135 64.805740
195 39 1  45.363548 12.685984 47.116978
196 40 1  14.582978 57.212795 1.033391
197 40 1  49.647472 53.022617 65.116386
198 40 1  45.632851 7.688078 25.663675
199 40 1  22.529482 48.756786 29.807350
200 40 1  5.631147 44.771976 16.345394
201 41 1  61.969231 0.078573 8.759751
202 41 1  6.974396 4.177759 41.109070
203 41 1  44.372036 29.051918 5.805141
204 41 1  56.838535 43.256889 41.285435
205 41 1  69.780174 7.510640 14.186478
206 42 1  11.872396 61.004391 50.720669
207 42 1  31.501446 65.410614 62.688648
208 42 1  49.845974 65.351158 41.338867
209 42 1  3.184997 2.199664 4.786043
210 42 1  20.935585 15.504926 49.492470
211 43 1  69.721992 26.455580 2.890026
212 43 1  52.371933 51.801163 66.495384
213 43 1  59.038361 22.996162 41.724030
214 43 1  44.670067 47.567150 49.843460
215 43 1  36.884895 1.264793 0.061741
216 44 1  63.726177 50.037731 38.168686
217 44 1  13.798837 29.291307 53.846939
218 44 1  36.916157 33.356022 25.984682
219 44 1  59.114471 68.725830 34.631744
220 44 1  6.694374 41.593952 49.068329
221 45 1  16.533575 48.408112 35.610699
222 45 1  52.513809 62.196178 22.317965
223 45 1  21.764826 66.815529 30.577181
224 45 1  35.935726 28.139303 11.897575
225 45 1  8.135856 45.099827 16.374563
226 46 1  8.040030 7.133152 1.619619
227 46 1  58.622009 8.517920 46.222469
228 46 1  11.677933 0.383908 33.058807
229 46 1  46.684273 63.679886 5.472631
230 46 1  65.541809 23.364855 5.923816
231 47 1  18.143047 31.045349 54.374424
232 47 1  25.905727 34.977295 17.329182
233 47 1  23.941774 41.292908 57.973751
234 47 1  20.882389 66.981293 67.818695
235 47 1  55.918243 6.241420 35.855900
236 48 1  5.775898 55.298248 49.621239
237 48 1  30.924849 12.979941 36.121429
238 48 1  62.414314 45.902122 17.311815
239 48 1  22.431641 18.974854 0.377730
240 48 1  29.566221 24.104883 32.214432
241 49 1  57.583927 5.058573 10.544039
242 49 1  42.276627 66.905411 22.346497
243 49 1  3.214668 56.533680 34.749882
244 49 1  48.816483 47.122673 48.538475
245 49 1  67.248360 53.630760 33.915958
246 50 1  43.489159 58.570335 19.992704
247 50 1  17.166744 38.415638 36.601978
248 50 1  51.094929 56.147255 36.032352
249 50 1  66.879890 20.191977 47.246513
250 50 1  43.774639 53.129826 45.236046
251 51 1  34.918518 18.498850 0.809765
252 51 1  56.116631 26.006744 32.041454
253 51 1  55.425102 42.338657 25.500320
254 51 1  28.384535 10.109694 1.434430
255 51 1  14.133937 5.080724 61.732609
256 52 1  29.419390 1.457240 9.599257
257 52 1  14.539971 44.422703 19.023598
258 52 1  44.095814 64.057251 15.264751
259 52 1  56.755917 28.108168 8.446583
260 52 1  25.837587 6.674897 16.755682
261 53 1  65.632462 69.662415 10.278560
262 53 1  38.694679 17.084593 8.947659
263 53 1  40.894360 24.421225 48.432472
264 53 1  8.025587 14.476932 6.902513
265 53 1  43.378307 23.362152 41.353603
266 54 1  26.604692 2.778196 26.440901
267 54 1  2.933747 46.621250 32.046200
268 54 1  9.700362 66.076309 41.200581
269 54 1  40.636829 0.602352 51.902035
270 54 1  28.261045 60.375015 44.628807
271 55 1  69.834541 58.778709 51.902573
272 55 1  20.039846 37.030609 56.016758
273 55 1  16.730745 64.733215 39.179039
274 55 1  23.560740 12.502048 11.520391
275 55 1  43.502327 32.735943 69.268768
276 56 1  53.540482 32.587166 20.721756
277 56 1  25.948982 68.579361 37.503868
278 56 1  54.591587 67.606499 8.019600
279 56 1  38.985203 20.110613 52.658894
280 56 1  25.156599 11.455361 21.816948
281 57 1  9.581329 10.413356 57.338924
282 57 1  8.356466 28.492935 28.568604
283 57 1  47.537498 5.473805 0.780265
284 57 1  19.724636 63.067635 43.070087
285 57 1  4.068601 67.969696 20.170332
286 58 1  41.930901 49.668400 38.461658
287 58 1  20.698675 31.439041 55.487335
288 58 1  48.516243 48.554039 21.833546
289 58 1  32.141220 45.720348 68.988693
290 58 1  0.622207 19.314955 69.000595
291 59 1  33.347530 27.959709 5.971437
292 59 1  67.745117 66.832397 28.603256
293 59 1  35.031281 61.268707 40.630451
294 59 1  1.465682 41.408573 23.906511
295 59 1  21.862158 9.094448 11.209560
296 60 1  1.294984 57.024288 47.195801
297 60 1  27.546785 69.411842 67.192604
298 60 1  47.935379 31.561747 69.646919
299 60 1  41.784245 58.599747 21.526554
300 60 1  35.060669 14.366961 28.703331
301 61 1  64.210449 39.081715 17.252239
302 61 1  30.904013 2.130956 14.576478
303 61 1  14.290553 31.197208 45.275902
304 61 1  3.252541 5.080769 8.337026
305 61 1  30.942413 64.402779 33.074303
306 62 1  0.592387 56.386829 14.152019
307 62 1  30.938866 66.436470 30.716599
308 62 1  42.635464 28.182615 56.297863
309 62 1  11.904140 24.415291 30.354622
310 62 1  62.406456 64.431084 7.718066
311 63 1  56.618244 33.737297 1.394997
312 63 1  9.020101 6.362402 69.557213
313 63 1  23.207949 53.226173 56.481270
314 63 1  39.421135 14.127789 7.323079
315 63 1  69.131622 57.386684 42.852791
316 64 1  43.972500 31.803720 6.811989
317 64 1  13.207013 15.137646 31.725843
318 64 1  51.846481 64.619873 27.625378
319 64 1  42.425610 12.381234 1.429080
320 64 1  46.356453 45.397522 18.413908
321 65 1  61.938080 5.641845 9.984083
322 65 1  4.568601 56.690418 40.816338
323 65 1  35.030937 15.207077 13.484032
324 65 1  8.523134 65.677925 21.315174
325 65 1  17.369316 39.184273 37.730495
326 66 1  55.436905 58.390308 24.248924
327 66 1  52.428749 23.632919 0.603776
328 66 1  40.959824 26.547297 52.237522
329 66 1  20.395407 59.285538 27.946018
330 66 1  19.739025 26.319256 10.549505
331 67 1  20.128721 61.705132 3.560449
332 67 1  28.410582 45.153458 57.648476
333 67 1  67.086182 11.038633 19.746370
334 67 1  66.314781 5.914519 24.199112
335 67 1  14.873240 31.344187 51.673477
336 68 1  33.084709 27.419708 22.983982
337 68 1  27.051046 12.923575 54.658348
338 68 1  65.564629 20.967791 68.561646
339 68 1  10.585158 17.748882 53.477402
340 68 1  61.536194 64.098732 69.235481
341 69 1  30.550348 48.515640 28.774012
342 69 1  0.238993 58.179970 38.289650
343 69 1  37.122414 51.606743 12.109577
344 69 1  30.896889 24.542995 56.748623
345 69 1  25.747704 56.361889 20.252193
346 70 1  61.333611 64.863472 46.245785
347 70 1  41.906803 18.952688 27.667263
348 70 1  28.890263 31.626047 45.485233
349 70 1  53.135742 8.234610 9.888065
350 70 1  69.670265 69.335320 20.826077
351 71 1  65.638710 27.948879 23.677528
352 71 1  49.072750 29.956861 40.887138
353 71 1  35.179359 18.325304 25.016220
354 71 1  53.569321 4.747455 35.557209
355 71 1  16.054119 64.967651 9.181046
356 72 1  57.319942 63.894405 17.895000
357 72 1  59.318043 19.296816 44.155437
358 72 1  57.173824 31.996773 1.505782
359 72 1  59.420910 11.995015 37.751804
360 72 1  1.330084 29.308313 60.240997
361 73 1  17.190002 21.638763 68.420807
362 73 1  43.957531 45.328255 28.152529
363 73 1  15.550595 17.273968 0.694702
364 73 1  27.611383 21.747471 42.221771
365 73 1  4.826323 45.367592 2.842875
366 74 1  12.481670 7.637222 13.684244
367 74 1  16.590681 69.408203 46.031586
368 74 1  43.935959 4.936671 10.172144
369 74 1  9.737497 61.372341 2.837978
370 74 1  62.084084 8.235768 61.997177
371 75 1  23.118837 40.673458 68.913239
372 75 1  23.958080 69.689507 4.919212
373 75 1  12.709157 63.558781 58.592907
374 75 1  14.854084 2.158514 42.468605
375 75 1  21.746307 6.520025 33.688255
376 76 1  66.169044 28.138838 59.435394
377 76 1  41.677937 69.762154 44.291191
378 76 1  0.069781 43.474854 11.758446
379 76 1  22.416716 12.273327 18.886204
380 76 1  11.182688 12.555444 63.816528
381 77 1  36.621868 30.406860 66.067253
382 77 1  17.447733 53.331963 56.604069
383 77 1  36.051426 51.878403 40.365231
384 77 1  50.523895 56.531441 68.202507
385 77 1  67.739235 30.343189 43.979523
386 78 1  14.290239 69.025581 4.945462
387 78 1  6.393444 50.300583 33.651585
388 78 1  55.154495 30.418169 6.705834
389 78 1  40.607208 2.007190 65.319778
390 78 1  48.808414 33.372269 13.989070
391 79 1  49.554749 8.534560 5.217583
392 79 1  2.098195 0.556777 28.508081
393 79 1  57.776745 29.056396 50.811455
394 79 1  14.563546 67.444214 12.415739
395 79 1  13.337680 45.856133 22.333740
396 80 1  16.962368 16.803663 62.883900
397 80 1  48.533836 6.982164 47.328949
398 80 1  58.561352 9.079416 52.143620
399 80 1  4.401944 29.603750 22.749941
400 80 1  14.203327 13.575174 62.719685
401 81 1  37.782589 6.252485 33.295959
402 81 1  36.235870 19.333168 55.646629
403 81 1  19.789000 16.813982 69.094948
404 81 1  0.454035 14.781525 27.683168
405 81 1  24.795349 67.445129 39.614086
406 82 1  67.175262 12.235507 28.733335

Bonds

1 1 1 2
2 2 2 3
3 2 3 4
4 2 4 5
5 2 5 6
6 2 6 7
7 2 7 8
8 2 8 9
9 3 9 10
